atomref-proatoms Al_q0_mult2_nist x2c-QZVPall
GAUSSIAN             15 MOL ORBITALS    124 PRIMITIVES        1 NUCLEI
  Al   1    (CENTRE  1)   0.00000000  0.00000000  0.00000000  CHARGE = 13.0
CENTRE ASSIGNMENTS    1  1  1  1  1  1  1  1  1  1  1  1  1  1  1  1  1  1  1  1
CENTRE ASSIGNMENTS    1  1  1  1  1  1  1  1  1  1  1  1  1  1  1  1  1  1  1  1
CENTRE ASSIGNMENTS    1  1  1  1  1  1  1  1  1  1  1  1  1  1  1  1  1  1  1  1
CENTRE ASSIGNMENTS    1  1  1  1  1  1  1  1  1  1  1  1  1  1  1  1  1  1  1  1
CENTRE ASSIGNMENTS    1  1  1  1  1  1  1  1  1  1  1  1  1  1  1  1  1  1  1  1
CENTRE ASSIGNMENTS    1  1  1  1  1  1  1  1  1  1  1  1  1  1  1  1  1  1  1  1
CENTRE ASSIGNMENTS    1  1  1  1
TYPE ASSIGNMENTS      1  1  1  1  1  1  1  1  1  1  1  1  1  1  1  1  1  1  1  1
TYPE ASSIGNMENTS      2  3  4  2  3  4  2  3  4  2  3  4  2  3  4  2  3  4  2  3
TYPE ASSIGNMENTS      4  2  3  4  2  3  4  2  3  4  2  3  4  2  3  4  2  3  4  2
TYPE ASSIGNMENTS      3  4  2  3  4  5  8  9  6 10  7  5  8  9  6 10  7  5  8  9
TYPE ASSIGNMENTS      6 10  7  5  8  9  6 10  7 11 14 15 17 20 18 12 16 19 13 11
TYPE ASSIGNMENTS     14 15 17 20 18 12 16 19 13 21 24 25 30 33 31 26 34 35 28 22
TYPE ASSIGNMENTS     27 32 29 23
EXPONENTS  7.7621401E+05 1.1315829E+05 2.5758628E+04 7.2868027E+03 2.3781408E+03
EXPONENTS  8.5825154E+02 3.3486216E+02 1.3862805E+02 6.0196859E+01 2.7176672E+01
EXPONENTS  2.2542669E+02 6.9313686E+01 2.6608817E+01 1.2361214E+01 4.5898976E+00
EXPONENTS  2.0562509E+00 9.0910390E-01 2.4240509E-01 1.1241887E-01 4.8171657E-02
EXPONENTS  2.0175077E+03 2.0175077E+03 2.0175077E+03 6.9941711E+02 6.9941711E+02
EXPONENTS  6.9941711E+02 2.5459308E+02 2.5459308E+02 2.5459308E+02 9.7307483E+01
EXPONENTS  9.7307483E+01 9.7307483E+01 3.9051272E+01 3.9051272E+01 3.9051272E+01
EXPONENTS  1.6455589E+01 1.6455589E+01 1.6455589E+01 7.2808313E+00 7.2808313E+00
EXPONENTS  7.2808313E+00 3.3825000E+00 3.3825000E+00 3.3825000E+00 1.6458911E+00
EXPONENTS  1.6458911E+00 1.6458911E+00 3.4731174E+01 3.4731174E+01 3.4731174E+01
EXPONENTS  1.2550064E+00 1.2550064E+00 1.2550064E+00 7.3609348E-01 7.3609348E-01
EXPONENTS  7.3609348E-01 2.4686579E-01 2.4686579E-01 2.4686579E-01 9.4824874E-02
EXPONENTS  9.4824874E-02 9.4824874E-02 3.6209523E-02 3.6209523E-02 3.6209523E-02
EXPONENTS  1.9700000E+00 1.9700000E+00 1.9700000E+00 1.9700000E+00 1.9700000E+00
EXPONENTS  1.9700000E+00 4.3700000E-01 4.3700000E-01 4.3700000E-01 4.3700000E-01
EXPONENTS  4.3700000E-01 4.3700000E-01 1.9500000E-01 1.9500000E-01 1.9500000E-01
EXPONENTS  1.9500000E-01 1.9500000E-01 1.9500000E-01 8.0000000E-02 8.0000000E-02
EXPONENTS  8.0000000E-02 8.0000000E-02 8.0000000E-02 8.0000000E-02 4.0100000E-01
EXPONENTS  4.0100000E-01 4.0100000E-01 4.0100000E-01 4.0100000E-01 4.0100000E-01
EXPONENTS  4.0100000E-01 4.0100000E-01 4.0100000E-01 4.0100000E-01 1.5400000E-01
EXPONENTS  1.5400000E-01 1.5400000E-01 1.5400000E-01 1.5400000E-01 1.5400000E-01
EXPONENTS  1.5400000E-01 1.5400000E-01 1.5400000E-01 1.5400000E-01 3.5700000E-01
EXPONENTS  3.5700000E-01 3.5700000E-01 3.5700000E-01 3.5700000E-01 3.5700000E-01
EXPONENTS  3.5700000E-01 3.5700000E-01 3.5700000E-01 3.5700000E-01 3.5700000E-01
EXPONENTS  3.5700000E-01 3.5700000E-01 3.5700000E-01 3.5700000E-01
MO    1                     OCC NO =   1.00000000 ORB. ENERGY = -56.30215414
  1.21463173E+00  1.04101747E+00  1.21863967E+00  1.59125112E+00  2.21142606E+00
  3.10713249E+00  4.15751756E+00  4.98935873E+00  4.78866247E+00  3.05303739E+00
 -1.20915646E-02 -4.21917385E-02 -7.00037164E-02  9.00103810E-01  3.95991867E-02
 -2.56160583E-03  4.45981206E-04 -4.83042568E-05  1.73072369E-05 -2.66336340E-06
  0.00000000E+00  0.00000000E+00  0.00000000E+00  0.00000000E+00  0.00000000E+00
  0.00000000E+00  0.00000000E+00  0.00000000E+00  0.00000000E+00  0.00000000E+00
  0.00000000E+00  0.00000000E+00  0.00000000E+00  0.00000000E+00  0.00000000E+00
  0.00000000E+00  0.00000000E+00  0.00000000E+00  0.00000000E+00  0.00000000E+00
  0.00000000E+00  0.00000000E+00  0.00000000E+00  0.00000000E+00  0.00000000E+00
  0.00000000E+00  0.00000000E+00  0.00000000E+00  0.00000000E+00  0.00000000E+00
  0.00000000E+00  0.00000000E+00  0.00000000E+00  0.00000000E+00  0.00000000E+00
  0.00000000E+00  0.00000000E+00  0.00000000E+00  0.00000000E+00  0.00000000E+00
  0.00000000E+00  0.00000000E+00  0.00000000E+00  0.00000000E+00  0.00000000E+00
  0.00000000E+00  0.00000000E+00  0.00000000E+00  0.00000000E+00  0.00000000E+00
  0.00000000E+00  0.00000000E+00  0.00000000E+00  0.00000000E+00  0.00000000E+00
  0.00000000E+00  0.00000000E+00  0.00000000E+00  0.00000000E+00  0.00000000E+00
  0.00000000E+00  0.00000000E+00  0.00000000E+00  0.00000000E+00  0.00000000E+00
  0.00000000E+00  0.00000000E+00  0.00000000E+00  0.00000000E+00  0.00000000E+00
  0.00000000E+00  0.00000000E+00  0.00000000E+00  0.00000000E+00  0.00000000E+00
  0.00000000E+00  0.00000000E+00  0.00000000E+00  0.00000000E+00  0.00000000E+00
  0.00000000E+00  0.00000000E+00  0.00000000E+00  0.00000000E+00  0.00000000E+00
  0.00000000E+00  0.00000000E+00  0.00000000E+00  0.00000000E+00  0.00000000E+00
  0.00000000E+00  0.00000000E+00  0.00000000E+00  0.00000000E+00  0.00000000E+00
  0.00000000E+00  0.00000000E+00  0.00000000E+00  0.00000000E+00  0.00000000E+00
  0.00000000E+00  0.00000000E+00  0.00000000E+00  0.00000000E+00
MO    2                     OCC NO =   1.00000000 ORB. ENERGY =  -4.22766103
 -3.22613790E-01 -2.76500757E-01 -3.23678325E-01 -4.22646259E-01 -5.87368604E-01
 -8.25273838E-01 -1.10426269E+00 -1.32520491E+00 -1.27189873E+00 -8.10905843E-01
 -1.07212671E-01 -3.74102865E-01 -6.20704236E-01 -4.70030369E-01  5.76032059E-01
  6.68284041E-01  2.20766867E-01  7.23724301E-03 -1.64739678E-03  2.24407543E-04
  0.00000000E+00  0.00000000E+00  0.00000000E+00  0.00000000E+00  0.00000000E+00
  0.00000000E+00  0.00000000E+00  0.00000000E+00  0.00000000E+00  0.00000000E+00
  0.00000000E+00  0.00000000E+00  0.00000000E+00  0.00000000E+00  0.00000000E+00
  0.00000000E+00  0.00000000E+00  0.00000000E+00  0.00000000E+00  0.00000000E+00
  0.00000000E+00  0.00000000E+00  0.00000000E+00  0.00000000E+00  0.00000000E+00
  0.00000000E+00  0.00000000E+00  0.00000000E+00  0.00000000E+00  0.00000000E+00
  0.00000000E+00  0.00000000E+00  0.00000000E+00  0.00000000E+00  0.00000000E+00
  0.00000000E+00  0.00000000E+00  0.00000000E+00  0.00000000E+00  0.00000000E+00
  0.00000000E+00  0.00000000E+00  0.00000000E+00  0.00000000E+00  0.00000000E+00
  0.00000000E+00  0.00000000E+00  0.00000000E+00  0.00000000E+00  0.00000000E+00
  0.00000000E+00  0.00000000E+00  0.00000000E+00  0.00000000E+00  0.00000000E+00
  0.00000000E+00  0.00000000E+00  0.00000000E+00  0.00000000E+00  0.00000000E+00
  0.00000000E+00  0.00000000E+00  0.00000000E+00  0.00000000E+00  0.00000000E+00
  0.00000000E+00  0.00000000E+00  0.00000000E+00  0.00000000E+00  0.00000000E+00
  0.00000000E+00  0.00000000E+00  0.00000000E+00  0.00000000E+00  0.00000000E+00
  0.00000000E+00  0.00000000E+00  0.00000000E+00  0.00000000E+00  0.00000000E+00
  0.00000000E+00  0.00000000E+00  0.00000000E+00  0.00000000E+00  0.00000000E+00
  0.00000000E+00  0.00000000E+00  0.00000000E+00  0.00000000E+00  0.00000000E+00
  0.00000000E+00  0.00000000E+00  0.00000000E+00  0.00000000E+00  0.00000000E+00
  0.00000000E+00  0.00000000E+00  0.00000000E+00  0.00000000E+00  0.00000000E+00
  0.00000000E+00  0.00000000E+00  0.00000000E+00  0.00000000E+00
MO    3                     OCC NO =   1.00000000 ORB. ENERGY =  -0.33792964
  8.01176778E-02  6.86660001E-02  8.03820435E-02  1.04959670E-01  1.45866699E-01
  2.04947915E-01  2.74231806E-01  3.29100440E-01  3.15862420E-01  2.01379777E-01
  2.87576142E-02  1.00345470E-01  1.66491263E-01  1.34095501E-01 -1.87543379E-01
 -2.45451439E-01 -1.54734877E-01  7.32742145E-02  9.17926103E-02  1.50430836E-02
  0.00000000E+00  0.00000000E+00  0.00000000E+00  0.00000000E+00  0.00000000E+00
  0.00000000E+00  0.00000000E+00  0.00000000E+00  0.00000000E+00  0.00000000E+00
  0.00000000E+00  0.00000000E+00  0.00000000E+00  0.00000000E+00  0.00000000E+00
  0.00000000E+00  0.00000000E+00  0.00000000E+00  0.00000000E+00  0.00000000E+00
  0.00000000E+00  0.00000000E+00  0.00000000E+00  0.00000000E+00  0.00000000E+00
  0.00000000E+00  0.00000000E+00  0.00000000E+00  0.00000000E+00  0.00000000E+00
  0.00000000E+00  0.00000000E+00  0.00000000E+00  0.00000000E+00  0.00000000E+00
  0.00000000E+00  0.00000000E+00  0.00000000E+00  0.00000000E+00  0.00000000E+00
  0.00000000E+00  0.00000000E+00  0.00000000E+00  0.00000000E+00  0.00000000E+00
  0.00000000E+00  0.00000000E+00  0.00000000E+00  0.00000000E+00  0.00000000E+00
  0.00000000E+00  0.00000000E+00  0.00000000E+00  0.00000000E+00  0.00000000E+00
  0.00000000E+00  0.00000000E+00  0.00000000E+00  0.00000000E+00  0.00000000E+00
  0.00000000E+00  0.00000000E+00  0.00000000E+00  0.00000000E+00  0.00000000E+00
  0.00000000E+00  0.00000000E+00  0.00000000E+00  0.00000000E+00  0.00000000E+00
  0.00000000E+00  0.00000000E+00  0.00000000E+00  0.00000000E+00  0.00000000E+00
  0.00000000E+00  0.00000000E+00  0.00000000E+00  0.00000000E+00  0.00000000E+00
  0.00000000E+00  0.00000000E+00  0.00000000E+00  0.00000000E+00  0.00000000E+00
  0.00000000E+00  0.00000000E+00  0.00000000E+00  0.00000000E+00  0.00000000E+00
  0.00000000E+00  0.00000000E+00  0.00000000E+00  0.00000000E+00  0.00000000E+00
  0.00000000E+00  0.00000000E+00  0.00000000E+00  0.00000000E+00  0.00000000E+00
  0.00000000E+00  0.00000000E+00  0.00000000E+00  0.00000000E+00
MO    4                     OCC NO =   1.00000000 ORB. ENERGY =  -2.73839956
  0.00000000E+00  0.00000000E+00  0.00000000E+00  0.00000000E+00  0.00000000E+00
  0.00000000E+00  0.00000000E+00  0.00000000E+00  0.00000000E+00  0.00000000E+00
  0.00000000E+00  0.00000000E+00  0.00000000E+00  0.00000000E+00  0.00000000E+00
  0.00000000E+00  0.00000000E+00  0.00000000E+00  0.00000000E+00  0.00000000E+00
  2.38316259E+00  0.00000000E+00  0.00000000E+00  2.37117231E+00  0.00000000E+00
  0.00000000E+00  3.71712985E+00  0.00000000E+00  0.00000000E+00  4.88672196E+00
  0.00000000E+00  0.00000000E+00  5.95690174E+00  0.00000000E+00  0.00000000E+00
  5.77067840E+00  0.00000000E+00  0.00000000E+00  4.20682606E+00  0.00000000E+00
  0.00000000E+00  2.18040375E+00  0.00000000E+00  0.00000000E+00  7.64374965E-01
  0.00000000E+00  0.00000000E+00 -5.15264226E-02  0.00000000E+00  0.00000000E+00
  2.73865588E-02  0.00000000E+00  0.00000000E+00  1.57536295E-01  0.00000000E+00
  0.00000000E+00  3.15447054E-03  0.00000000E+00  0.00000000E+00 -7.15736130E-05
  0.00000000E+00  0.00000000E+00  3.96265224E-06  0.00000000E+00  0.00000000E+00
  0.00000000E+00  0.00000000E+00  0.00000000E+00  0.00000000E+00  0.00000000E+00
  0.00000000E+00  0.00000000E+00  0.00000000E+00  0.00000000E+00  0.00000000E+00
  0.00000000E+00  0.00000000E+00  0.00000000E+00  0.00000000E+00  0.00000000E+00
  0.00000000E+00  0.00000000E+00  0.00000000E+00  0.00000000E+00  0.00000000E+00
  0.00000000E+00  0.00000000E+00  0.00000000E+00  0.00000000E+00  0.00000000E+00
  0.00000000E+00  0.00000000E+00  0.00000000E+00  0.00000000E+00  0.00000000E+00
  0.00000000E+00  0.00000000E+00  0.00000000E+00  0.00000000E+00  0.00000000E+00
  0.00000000E+00  0.00000000E+00  0.00000000E+00  0.00000000E+00  0.00000000E+00
  0.00000000E+00  0.00000000E+00  0.00000000E+00  0.00000000E+00  0.00000000E+00
  0.00000000E+00  0.00000000E+00  0.00000000E+00  0.00000000E+00  0.00000000E+00
  0.00000000E+00  0.00000000E+00  0.00000000E+00  0.00000000E+00  0.00000000E+00
  0.00000000E+00  0.00000000E+00  0.00000000E+00  0.00000000E+00
MO    5                     OCC NO =   1.00000000 ORB. ENERGY =  -2.73839956
  0.00000000E+00  0.00000000E+00  0.00000000E+00  0.00000000E+00  0.00000000E+00
  0.00000000E+00  0.00000000E+00  0.00000000E+00  0.00000000E+00  0.00000000E+00
  0.00000000E+00  0.00000000E+00  0.00000000E+00  0.00000000E+00  0.00000000E+00
  0.00000000E+00  0.00000000E+00  0.00000000E+00  0.00000000E+00  0.00000000E+00
  0.00000000E+00  2.38316259E+00  0.00000000E+00  0.00000000E+00  2.37117231E+00
  0.00000000E+00  0.00000000E+00  3.71712985E+00  0.00000000E+00  0.00000000E+00
  4.88672196E+00  0.00000000E+00  0.00000000E+00  5.95690174E+00  0.00000000E+00
  0.00000000E+00  5.77067840E+00  0.00000000E+00  0.00000000E+00  4.20682606E+00
  0.00000000E+00  0.00000000E+00  2.18040375E+00  0.00000000E+00  0.00000000E+00
  7.64374965E-01  0.00000000E+00  0.00000000E+00 -5.15264226E-02  0.00000000E+00
  0.00000000E+00  2.73865588E-02  0.00000000E+00  0.00000000E+00  1.57536295E-01
  0.00000000E+00  0.00000000E+00  3.15447054E-03  0.00000000E+00  0.00000000E+00
 -7.15736130E-05  0.00000000E+00  0.00000000E+00  3.96265224E-06  0.00000000E+00
  0.00000000E+00  0.00000000E+00  0.00000000E+00  0.00000000E+00  0.00000000E+00
  0.00000000E+00  0.00000000E+00  0.00000000E+00  0.00000000E+00  0.00000000E+00
  0.00000000E+00  0.00000000E+00  0.00000000E+00  0.00000000E+00  0.00000000E+00
  0.00000000E+00  0.00000000E+00  0.00000000E+00  0.00000000E+00  0.00000000E+00
  0.00000000E+00  0.00000000E+00  0.00000000E+00  0.00000000E+00  0.00000000E+00
  0.00000000E+00  0.00000000E+00  0.00000000E+00  0.00000000E+00  0.00000000E+00
  0.00000000E+00  0.00000000E+00  0.00000000E+00  0.00000000E+00  0.00000000E+00
  0.00000000E+00  0.00000000E+00  0.00000000E+00  0.00000000E+00  0.00000000E+00
  0.00000000E+00  0.00000000E+00  0.00000000E+00  0.00000000E+00  0.00000000E+00
  0.00000000E+00  0.00000000E+00  0.00000000E+00  0.00000000E+00  0.00000000E+00
  0.00000000E+00  0.00000000E+00  0.00000000E+00  0.00000000E+00  0.00000000E+00
  0.00000000E+00  0.00000000E+00  0.00000000E+00  0.00000000E+00
MO    6                     OCC NO =   1.00000000 ORB. ENERGY =  -2.73839956
  0.00000000E+00  0.00000000E+00  0.00000000E+00  0.00000000E+00  0.00000000E+00
  0.00000000E+00  0.00000000E+00  0.00000000E+00  0.00000000E+00  0.00000000E+00
  0.00000000E+00  0.00000000E+00  0.00000000E+00  0.00000000E+00  0.00000000E+00
  0.00000000E+00  0.00000000E+00  0.00000000E+00  0.00000000E+00  0.00000000E+00
  0.00000000E+00  0.00000000E+00  2.38316259E+00  0.00000000E+00  0.00000000E+00
  2.37117231E+00  0.00000000E+00  0.00000000E+00  3.71712985E+00  0.00000000E+00
  0.00000000E+00  4.88672196E+00  0.00000000E+00  0.00000000E+00  5.95690174E+00
  0.00000000E+00  0.00000000E+00  5.77067840E+00  0.00000000E+00  0.00000000E+00
  4.20682606E+00  0.00000000E+00  0.00000000E+00  2.18040375E+00  0.00000000E+00
  0.00000000E+00  7.64374965E-01  0.00000000E+00  0.00000000E+00 -5.15264226E-02
  0.00000000E+00  0.00000000E+00  2.73865588E-02  0.00000000E+00  0.00000000E+00
  1.57536295E-01  0.00000000E+00  0.00000000E+00  3.15447054E-03  0.00000000E+00
  0.00000000E+00 -7.15736130E-05  0.00000000E+00  0.00000000E+00  3.96265224E-06
  0.00000000E+00  0.00000000E+00  0.00000000E+00  0.00000000E+00  0.00000000E+00
  0.00000000E+00  0.00000000E+00  0.00000000E+00  0.00000000E+00  0.00000000E+00
  0.00000000E+00  0.00000000E+00  0.00000000E+00  0.00000000E+00  0.00000000E+00
  0.00000000E+00  0.00000000E+00  0.00000000E+00  0.00000000E+00  0.00000000E+00
  0.00000000E+00  0.00000000E+00  0.00000000E+00  0.00000000E+00  0.00000000E+00
  0.00000000E+00  0.00000000E+00  0.00000000E+00  0.00000000E+00  0.00000000E+00
  0.00000000E+00  0.00000000E+00  0.00000000E+00  0.00000000E+00  0.00000000E+00
  0.00000000E+00  0.00000000E+00  0.00000000E+00  0.00000000E+00  0.00000000E+00
  0.00000000E+00  0.00000000E+00  0.00000000E+00  0.00000000E+00  0.00000000E+00
  0.00000000E+00  0.00000000E+00  0.00000000E+00  0.00000000E+00  0.00000000E+00
  0.00000000E+00  0.00000000E+00  0.00000000E+00  0.00000000E+00  0.00000000E+00
  0.00000000E+00  0.00000000E+00  0.00000000E+00  0.00000000E+00
MO    7                     OCC NO =   0.33333333 ORB. ENERGY =  -0.10369468
  0.00000000E+00  0.00000000E+00  0.00000000E+00  0.00000000E+00  0.00000000E+00
  0.00000000E+00  0.00000000E+00  0.00000000E+00  0.00000000E+00  0.00000000E+00
  0.00000000E+00  0.00000000E+00  0.00000000E+00  0.00000000E+00  0.00000000E+00
  0.00000000E+00  0.00000000E+00  0.00000000E+00  0.00000000E+00  0.00000000E+00
 -4.71534386E-01  0.00000000E+00  0.00000000E+00 -4.69161980E-01  0.00000000E+00
  0.00000000E+00 -7.35474177E-01  0.00000000E+00  0.00000000E+00 -9.66890573E-01
  0.00000000E+00  0.00000000E+00 -1.17863717E+00  0.00000000E+00  0.00000000E+00
 -1.14179088E+00  0.00000000E+00  0.00000000E+00 -8.32365846E-01  0.00000000E+00
  0.00000000E+00 -4.31416367E-01  0.00000000E+00  0.00000000E+00 -1.51239820E-01
  0.00000000E+00  0.00000000E+00  4.06112242E-02  0.00000000E+00  0.00000000E+00
 -2.15850747E-02  0.00000000E+00  0.00000000E+00  3.78786944E-03  0.00000000E+00
  0.00000000E+00  7.63401831E-02  0.00000000E+00  0.00000000E+00  3.78470479E-02
  0.00000000E+00  0.00000000E+00  7.27916256E-03  0.00000000E+00  0.00000000E+00
  0.00000000E+00  0.00000000E+00  0.00000000E+00  0.00000000E+00  0.00000000E+00
  0.00000000E+00  0.00000000E+00  0.00000000E+00  0.00000000E+00  0.00000000E+00
  0.00000000E+00  0.00000000E+00  0.00000000E+00  0.00000000E+00  0.00000000E+00
  0.00000000E+00  0.00000000E+00  0.00000000E+00  0.00000000E+00  0.00000000E+00
  0.00000000E+00  0.00000000E+00  0.00000000E+00  0.00000000E+00  0.00000000E+00
  0.00000000E+00  0.00000000E+00  0.00000000E+00  0.00000000E+00  0.00000000E+00
  0.00000000E+00  0.00000000E+00  0.00000000E+00  0.00000000E+00  0.00000000E+00
  0.00000000E+00  0.00000000E+00  0.00000000E+00  0.00000000E+00  0.00000000E+00
  0.00000000E+00  0.00000000E+00  0.00000000E+00  0.00000000E+00  0.00000000E+00
  0.00000000E+00  0.00000000E+00  0.00000000E+00  0.00000000E+00  0.00000000E+00
  0.00000000E+00  0.00000000E+00  0.00000000E+00  0.00000000E+00  0.00000000E+00
  0.00000000E+00  0.00000000E+00  0.00000000E+00  0.00000000E+00
MO    8                     OCC NO =   0.33333333 ORB. ENERGY =  -0.10369468
  0.00000000E+00  0.00000000E+00  0.00000000E+00  0.00000000E+00  0.00000000E+00
  0.00000000E+00  0.00000000E+00  0.00000000E+00  0.00000000E+00  0.00000000E+00
  0.00000000E+00  0.00000000E+00  0.00000000E+00  0.00000000E+00  0.00000000E+00
  0.00000000E+00  0.00000000E+00  0.00000000E+00  0.00000000E+00  0.00000000E+00
  0.00000000E+00 -4.71534386E-01  0.00000000E+00  0.00000000E+00 -4.69161980E-01
  0.00000000E+00  0.00000000E+00 -7.35474177E-01  0.00000000E+00  0.00000000E+00
 -9.66890573E-01  0.00000000E+00  0.00000000E+00 -1.17863717E+00  0.00000000E+00
  0.00000000E+00 -1.14179088E+00  0.00000000E+00  0.00000000E+00 -8.32365846E-01
  0.00000000E+00  0.00000000E+00 -4.31416367E-01  0.00000000E+00  0.00000000E+00
 -1.51239820E-01  0.00000000E+00  0.00000000E+00  4.06112242E-02  0.00000000E+00
  0.00000000E+00 -2.15850747E-02  0.00000000E+00  0.00000000E+00  3.78786944E-03
  0.00000000E+00  0.00000000E+00  7.63401831E-02  0.00000000E+00  0.00000000E+00
  3.78470479E-02  0.00000000E+00  0.00000000E+00  7.27916256E-03  0.00000000E+00
  0.00000000E+00  0.00000000E+00  0.00000000E+00  0.00000000E+00  0.00000000E+00
  0.00000000E+00  0.00000000E+00  0.00000000E+00  0.00000000E+00  0.00000000E+00
  0.00000000E+00  0.00000000E+00  0.00000000E+00  0.00000000E+00  0.00000000E+00
  0.00000000E+00  0.00000000E+00  0.00000000E+00  0.00000000E+00  0.00000000E+00
  0.00000000E+00  0.00000000E+00  0.00000000E+00  0.00000000E+00  0.00000000E+00
  0.00000000E+00  0.00000000E+00  0.00000000E+00  0.00000000E+00  0.00000000E+00
  0.00000000E+00  0.00000000E+00  0.00000000E+00  0.00000000E+00  0.00000000E+00
  0.00000000E+00  0.00000000E+00  0.00000000E+00  0.00000000E+00  0.00000000E+00
  0.00000000E+00  0.00000000E+00  0.00000000E+00  0.00000000E+00  0.00000000E+00
  0.00000000E+00  0.00000000E+00  0.00000000E+00  0.00000000E+00  0.00000000E+00
  0.00000000E+00  0.00000000E+00  0.00000000E+00  0.00000000E+00  0.00000000E+00
  0.00000000E+00  0.00000000E+00  0.00000000E+00  0.00000000E+00
MO    9                     OCC NO =   0.33333333 ORB. ENERGY =  -0.10369468
  0.00000000E+00  0.00000000E+00  0.00000000E+00  0.00000000E+00  0.00000000E+00
  0.00000000E+00  0.00000000E+00  0.00000000E+00  0.00000000E+00  0.00000000E+00
  0.00000000E+00  0.00000000E+00  0.00000000E+00  0.00000000E+00  0.00000000E+00
  0.00000000E+00  0.00000000E+00  0.00000000E+00  0.00000000E+00  0.00000000E+00
  0.00000000E+00  0.00000000E+00 -4.71534386E-01  0.00000000E+00  0.00000000E+00
 -4.69161980E-01  0.00000000E+00  0.00000000E+00 -7.35474177E-01  0.00000000E+00
  0.00000000E+00 -9.66890573E-01  0.00000000E+00  0.00000000E+00 -1.17863717E+00
  0.00000000E+00  0.00000000E+00 -1.14179088E+00  0.00000000E+00  0.00000000E+00
 -8.32365846E-01  0.00000000E+00  0.00000000E+00 -4.31416367E-01  0.00000000E+00
  0.00000000E+00 -1.51239820E-01  0.00000000E+00  0.00000000E+00  4.06112242E-02
  0.00000000E+00  0.00000000E+00 -2.15850747E-02  0.00000000E+00  0.00000000E+00
  3.78786944E-03  0.00000000E+00  0.00000000E+00  7.63401831E-02  0.00000000E+00
  0.00000000E+00  3.78470479E-02  0.00000000E+00  0.00000000E+00  7.27916256E-03
  0.00000000E+00  0.00000000E+00  0.00000000E+00  0.00000000E+00  0.00000000E+00
  0.00000000E+00  0.00000000E+00  0.00000000E+00  0.00000000E+00  0.00000000E+00
  0.00000000E+00  0.00000000E+00  0.00000000E+00  0.00000000E+00  0.00000000E+00
  0.00000000E+00  0.00000000E+00  0.00000000E+00  0.00000000E+00  0.00000000E+00
  0.00000000E+00  0.00000000E+00  0.00000000E+00  0.00000000E+00  0.00000000E+00
  0.00000000E+00  0.00000000E+00  0.00000000E+00  0.00000000E+00  0.00000000E+00
  0.00000000E+00  0.00000000E+00  0.00000000E+00  0.00000000E+00  0.00000000E+00
  0.00000000E+00  0.00000000E+00  0.00000000E+00  0.00000000E+00  0.00000000E+00
  0.00000000E+00  0.00000000E+00  0.00000000E+00  0.00000000E+00  0.00000000E+00
  0.00000000E+00  0.00000000E+00  0.00000000E+00  0.00000000E+00  0.00000000E+00
  0.00000000E+00  0.00000000E+00  0.00000000E+00  0.00000000E+00  0.00000000E+00
  0.00000000E+00  0.00000000E+00  0.00000000E+00  0.00000000E+00
MO   11                    OCC NO =   1.00000000 ORB. ENERGY = -56.30028275
  1.21466875E+00  1.04104920E+00  1.21867681E+00  1.59129962E+00  2.21149346E+00
  3.10722719E+00  4.15764428E+00  4.98951080E+00  4.78880842E+00  3.05313044E+00
 -1.20773939E-02 -4.21422917E-02 -6.99216751E-02  8.99889531E-01  3.96059633E-02
 -2.57663349E-03  4.50471194E-04 -4.82397640E-05  1.75939329E-05 -2.66838812E-06
  0.00000000E+00  0.00000000E+00  0.00000000E+00  0.00000000E+00  0.00000000E+00
  0.00000000E+00  0.00000000E+00  0.00000000E+00  0.00000000E+00  0.00000000E+00
  0.00000000E+00  0.00000000E+00  0.00000000E+00  0.00000000E+00  0.00000000E+00
  0.00000000E+00  0.00000000E+00  0.00000000E+00  0.00000000E+00  0.00000000E+00
  0.00000000E+00  0.00000000E+00  0.00000000E+00  0.00000000E+00  0.00000000E+00
  0.00000000E+00  0.00000000E+00  0.00000000E+00  0.00000000E+00  0.00000000E+00
  0.00000000E+00  0.00000000E+00  0.00000000E+00  0.00000000E+00  0.00000000E+00
  0.00000000E+00  0.00000000E+00  0.00000000E+00  0.00000000E+00  0.00000000E+00
  0.00000000E+00  0.00000000E+00  0.00000000E+00  0.00000000E+00  0.00000000E+00
  0.00000000E+00  0.00000000E+00  0.00000000E+00  0.00000000E+00  0.00000000E+00
  0.00000000E+00  0.00000000E+00  0.00000000E+00  0.00000000E+00  0.00000000E+00
  0.00000000E+00  0.00000000E+00  0.00000000E+00  0.00000000E+00  0.00000000E+00
  0.00000000E+00  0.00000000E+00  0.00000000E+00  0.00000000E+00  0.00000000E+00
  0.00000000E+00  0.00000000E+00  0.00000000E+00  0.00000000E+00  0.00000000E+00
  0.00000000E+00  0.00000000E+00  0.00000000E+00  0.00000000E+00  0.00000000E+00
  0.00000000E+00  0.00000000E+00  0.00000000E+00  0.00000000E+00  0.00000000E+00
  0.00000000E+00  0.00000000E+00  0.00000000E+00  0.00000000E+00  0.00000000E+00
  0.00000000E+00  0.00000000E+00  0.00000000E+00  0.00000000E+00  0.00000000E+00
  0.00000000E+00  0.00000000E+00  0.00000000E+00  0.00000000E+00  0.00000000E+00
  0.00000000E+00  0.00000000E+00  0.00000000E+00  0.00000000E+00  0.00000000E+00
  0.00000000E+00  0.00000000E+00  0.00000000E+00  0.00000000E+00
MO   12                    OCC NO =   1.00000000 ORB. ENERGY =  -4.22551985
 -3.22557426E-01 -2.76452449E-01 -3.23621775E-01 -4.22572418E-01 -5.87265985E-01
 -8.25129655E-01 -1.10406976E+00 -1.32497339E+00 -1.27167651E+00 -8.10764169E-01
 -1.07145620E-01 -3.73868901E-01 -6.20316048E-01 -4.70171867E-01  5.75764587E-01
  6.67980488E-01  2.21199431E-01  7.13578773E-03 -1.65589701E-03  2.22609351E-04
  0.00000000E+00  0.00000000E+00  0.00000000E+00  0.00000000E+00  0.00000000E+00
  0.00000000E+00  0.00000000E+00  0.00000000E+00  0.00000000E+00  0.00000000E+00
  0.00000000E+00  0.00000000E+00  0.00000000E+00  0.00000000E+00  0.00000000E+00
  0.00000000E+00  0.00000000E+00  0.00000000E+00  0.00000000E+00  0.00000000E+00
  0.00000000E+00  0.00000000E+00  0.00000000E+00  0.00000000E+00  0.00000000E+00
  0.00000000E+00  0.00000000E+00  0.00000000E+00  0.00000000E+00  0.00000000E+00
  0.00000000E+00  0.00000000E+00  0.00000000E+00  0.00000000E+00  0.00000000E+00
  0.00000000E+00  0.00000000E+00  0.00000000E+00  0.00000000E+00  0.00000000E+00
  0.00000000E+00  0.00000000E+00  0.00000000E+00  0.00000000E+00  0.00000000E+00
  0.00000000E+00  0.00000000E+00  0.00000000E+00  0.00000000E+00  0.00000000E+00
  0.00000000E+00  0.00000000E+00  0.00000000E+00  0.00000000E+00  0.00000000E+00
  0.00000000E+00  0.00000000E+00  0.00000000E+00  0.00000000E+00  0.00000000E+00
  0.00000000E+00  0.00000000E+00  0.00000000E+00  0.00000000E+00  0.00000000E+00
  0.00000000E+00  0.00000000E+00  0.00000000E+00  0.00000000E+00  0.00000000E+00
  0.00000000E+00  0.00000000E+00  0.00000000E+00  0.00000000E+00  0.00000000E+00
  0.00000000E+00  0.00000000E+00  0.00000000E+00  0.00000000E+00  0.00000000E+00
  0.00000000E+00  0.00000000E+00  0.00000000E+00  0.00000000E+00  0.00000000E+00
  0.00000000E+00  0.00000000E+00  0.00000000E+00  0.00000000E+00  0.00000000E+00
  0.00000000E+00  0.00000000E+00  0.00000000E+00  0.00000000E+00  0.00000000E+00
  0.00000000E+00  0.00000000E+00  0.00000000E+00  0.00000000E+00  0.00000000E+00
  0.00000000E+00  0.00000000E+00  0.00000000E+00  0.00000000E+00
MO   13                    OCC NO =   1.00000000 ORB. ENERGY =  -0.30490386
  8.16802377E-02  7.00052143E-02  8.19497594E-02  1.07006730E-01  1.48711582E-01
  2.08945077E-01  2.79580234E-01  3.35518987E-01  3.22022783E-01  2.05307349E-01
  2.96075832E-02  1.03311312E-01  1.71412131E-01  1.33694227E-01 -1.85682766E-01
 -2.59459663E-01 -1.54072976E-01  8.33175086E-02  8.58592391E-02  1.57608770E-02
  0.00000000E+00  0.00000000E+00  0.00000000E+00  0.00000000E+00  0.00000000E+00
  0.00000000E+00  0.00000000E+00  0.00000000E+00  0.00000000E+00  0.00000000E+00
  0.00000000E+00  0.00000000E+00  0.00000000E+00  0.00000000E+00  0.00000000E+00
  0.00000000E+00  0.00000000E+00  0.00000000E+00  0.00000000E+00  0.00000000E+00
  0.00000000E+00  0.00000000E+00  0.00000000E+00  0.00000000E+00  0.00000000E+00
  0.00000000E+00  0.00000000E+00  0.00000000E+00  0.00000000E+00  0.00000000E+00
  0.00000000E+00  0.00000000E+00  0.00000000E+00  0.00000000E+00  0.00000000E+00
  0.00000000E+00  0.00000000E+00  0.00000000E+00  0.00000000E+00  0.00000000E+00
  0.00000000E+00  0.00000000E+00  0.00000000E+00  0.00000000E+00  0.00000000E+00
  0.00000000E+00  0.00000000E+00  0.00000000E+00  0.00000000E+00  0.00000000E+00
  0.00000000E+00  0.00000000E+00  0.00000000E+00  0.00000000E+00  0.00000000E+00
  0.00000000E+00  0.00000000E+00  0.00000000E+00  0.00000000E+00  0.00000000E+00
  0.00000000E+00  0.00000000E+00  0.00000000E+00  0.00000000E+00  0.00000000E+00
  0.00000000E+00  0.00000000E+00  0.00000000E+00  0.00000000E+00  0.00000000E+00
  0.00000000E+00  0.00000000E+00  0.00000000E+00  0.00000000E+00  0.00000000E+00
  0.00000000E+00  0.00000000E+00  0.00000000E+00  0.00000000E+00  0.00000000E+00
  0.00000000E+00  0.00000000E+00  0.00000000E+00  0.00000000E+00  0.00000000E+00
  0.00000000E+00  0.00000000E+00  0.00000000E+00  0.00000000E+00  0.00000000E+00
  0.00000000E+00  0.00000000E+00  0.00000000E+00  0.00000000E+00  0.00000000E+00
  0.00000000E+00  0.00000000E+00  0.00000000E+00  0.00000000E+00  0.00000000E+00
  0.00000000E+00  0.00000000E+00  0.00000000E+00  0.00000000E+00
MO   14                    OCC NO =   1.00000000 ORB. ENERGY =  -2.73499137
  0.00000000E+00  0.00000000E+00  0.00000000E+00  0.00000000E+00  0.00000000E+00
  0.00000000E+00  0.00000000E+00  0.00000000E+00  0.00000000E+00  0.00000000E+00
  0.00000000E+00  0.00000000E+00  0.00000000E+00  0.00000000E+00  0.00000000E+00
  0.00000000E+00  0.00000000E+00  0.00000000E+00  0.00000000E+00  0.00000000E+00
  2.38186312E+00  0.00000000E+00  0.00000000E+00  2.36987937E+00  0.00000000E+00
  0.00000000E+00  3.71510301E+00  0.00000000E+00  0.00000000E+00  4.88405737E+00
  0.00000000E+00  0.00000000E+00  5.95365361E+00  0.00000000E+00  0.00000000E+00
  5.76753181E+00  0.00000000E+00  0.00000000E+00  4.20453219E+00  0.00000000E+00
  0.00000000E+00  2.17921484E+00  0.00000000E+00  0.00000000E+00  7.63958173E-01
  0.00000000E+00  0.00000000E+00 -5.29289140E-02  0.00000000E+00  0.00000000E+00
  2.81319901E-02  0.00000000E+00  0.00000000E+00  1.58037029E-01  0.00000000E+00
  0.00000000E+00  2.99737932E-03  0.00000000E+00  0.00000000E+00 -6.13963018E-05
  0.00000000E+00  0.00000000E+00  2.81312776E-06  0.00000000E+00  0.00000000E+00
  0.00000000E+00  0.00000000E+00  0.00000000E+00  0.00000000E+00  0.00000000E+00
  0.00000000E+00  0.00000000E+00  0.00000000E+00  0.00000000E+00  0.00000000E+00
  0.00000000E+00  0.00000000E+00  0.00000000E+00  0.00000000E+00  0.00000000E+00
  0.00000000E+00  0.00000000E+00  0.00000000E+00  0.00000000E+00  0.00000000E+00
  0.00000000E+00  0.00000000E+00  0.00000000E+00  0.00000000E+00  0.00000000E+00
  0.00000000E+00  0.00000000E+00  0.00000000E+00  0.00000000E+00  0.00000000E+00
  0.00000000E+00  0.00000000E+00  0.00000000E+00  0.00000000E+00  0.00000000E+00