atomref-proatoms Ar_q0_mult1_nist x2c-QZVPall
GAUSSIAN             18 MOL ORBITALS    124 PRIMITIVES        1 NUCLEI
  Ar   1    (CENTRE  1)   0.00000000  0.00000000  0.00000000  CHARGE = 18.0
CENTRE ASSIGNMENTS    1  1  1  1  1  1  1  1  1  1  1  1  1  1  1  1  1  1  1  1
CENTRE ASSIGNMENTS    1  1  1  1  1  1  1  1  1  1  1  1  1  1  1  1  1  1  1  1
CENTRE ASSIGNMENTS    1  1  1  1  1  1  1  1  1  1  1  1  1  1  1  1  1  1  1  1
CENTRE ASSIGNMENTS    1  1  1  1  1  1  1  1  1  1  1  1  1  1  1  1  1  1  1  1
CENTRE ASSIGNMENTS    1  1  1  1  1  1  1  1  1  1  1  1  1  1  1  1  1  1  1  1
CENTRE ASSIGNMENTS    1  1  1  1  1  1  1  1  1  1  1  1  1  1  1  1  1  1  1  1
CENTRE ASSIGNMENTS    1  1  1  1
TYPE ASSIGNMENTS      1  1  1  1  1  1  1  1  1  1  1  1  1  1  1  1  1  1  1  1
TYPE ASSIGNMENTS      2  3  4  2  3  4  2  3  4  2  3  4  2  3  4  2  3  4  2  3
TYPE ASSIGNMENTS      4  2  3  4  2  3  4  2  3  4  2  3  4  2  3  4  2  3  4  2
TYPE ASSIGNMENTS      3  4  2  3  4  5  8  9  6 10  7  5  8  9  6 10  7  5  8  9
TYPE ASSIGNMENTS      6 10  7  5  8  9  6 10  7 11 14 15 17 20 18 12 16 19 13 11
TYPE ASSIGNMENTS     14 15 17 20 18 12 16 19 13 21 24 25 30 33 31 26 34 35 28 22
TYPE ASSIGNMENTS     27 32 29 23
EXPONENTS  1.7528583E+06 2.5174089E+05 5.7181161E+04 1.6167246E+04 5.2737466E+03
EXPONENTS  1.9038670E+03 7.4253108E+02 3.0759319E+02 1.3361454E+02 6.0367934E+01
EXPONENTS  5.2256093E+02 1.6139621E+02 6.2109922E+01 2.7637287E+01 1.1177203E+01
EXPONENTS  5.2939509E+00 2.4801090E+00 9.1336150E-01 4.0401678E-01 1.6572531E-01
EXPONENTS  1.2883315E+02 1.2883315E+02 1.2883315E+02 8.4519023E+00 8.4519023E+00
EXPONENTS  8.4519023E+00 5.4703603E+03 5.4703603E+03 5.4703603E+03 1.7660689E+03
EXPONENTS  1.7660689E+03 1.7660689E+03 6.0437326E+02 6.0437326E+02 6.0437326E+02
EXPONENTS  2.1923440E+02 2.1923440E+02 2.1923440E+02 8.4298144E+01 8.4298144E+01
EXPONENTS  8.4298144E+01 3.4358421E+01 3.4358421E+01 3.4358421E+01 1.4844113E+01
EXPONENTS  1.4844113E+01 1.4844113E+01 6.7980000E+00 6.7980000E+00 6.7980000E+00
EXPONENTS  3.3035490E+00 3.3035490E+00 3.3035490E+00 1.4667315E+00 1.4667315E+00
EXPONENTS  1.4667315E+00 6.4690076E-01 6.4690076E-01 6.4690076E-01 2.7214600E-01
EXPONENTS  2.7214600E-01 2.7214600E-01 1.0901381E-01 1.0901381E-01 1.0901381E-01
EXPONENTS  6.3150000E+00 6.3150000E+00 6.3150000E+00 6.3150000E+00 6.3150000E+00
EXPONENTS  6.3150000E+00 1.5620000E+00 1.5620000E+00 1.5620000E+00 1.5620000E+00
EXPONENTS  1.5620000E+00 1.5620000E+00 7.1500000E-01 7.1500000E-01 7.1500000E-01
EXPONENTS  7.1500000E-01 7.1500000E-01 7.1500000E-01 2.9700000E-01 2.9700000E-01
EXPONENTS  2.9700000E-01 2.9700000E-01 2.9700000E-01 2.9700000E-01 1.3250000E+00
EXPONENTS  1.3250000E+00 1.3250000E+00 1.3250000E+00 1.3250000E+00 1.3250000E+00
EXPONENTS  1.3250000E+00 1.3250000E+00 1.3250000E+00 1.3250000E+00 5.4300000E-01
EXPONENTS  5.4300000E-01 5.4300000E-01 5.4300000E-01 5.4300000E-01 5.4300000E-01
EXPONENTS  5.4300000E-01 5.4300000E-01 5.4300000E-01 5.4300000E-01 1.0070000E+00
EXPONENTS  1.0070000E+00 1.0070000E+00 1.0070000E+00 1.0070000E+00 1.0070000E+00
EXPONENTS  1.0070000E+00 1.0070000E+00 1.0070000E+00 1.0070000E+00 1.0070000E+00
EXPONENTS  1.0070000E+00 1.0070000E+00 1.0070000E+00 1.0070000E+00
MO    1                     OCC NO =   1.00000000 ORB. ENERGY = -115.73848483
  2.89671100E+00  2.23136207E+00  2.36988624E+00  2.84504261E+00  3.70989969E+00
  5.00608443E+00  6.61167226E+00  8.03201302E+00  8.03779163E+00  5.54353666E+00
 -1.98861485E-03 -7.15915698E-03 -1.33419167E-02  1.94358570E+00  1.40304662E-01
 -9.68430352E-03  2.12400250E-03 -3.65785394E-04  9.12030330E-05 -1.26357316E-05
  0.00000000E+00  0.00000000E+00  0.00000000E+00  0.00000000E+00  0.00000000E+00
  0.00000000E+00  0.00000000E+00  0.00000000E+00  0.00000000E+00  0.00000000E+00
  0.00000000E+00  0.00000000E+00  0.00000000E+00  0.00000000E+00  0.00000000E+00
  0.00000000E+00  0.00000000E+00  0.00000000E+00  0.00000000E+00  0.00000000E+00
  0.00000000E+00  0.00000000E+00  0.00000000E+00  0.00000000E+00  0.00000000E+00
  0.00000000E+00  0.00000000E+00  0.00000000E+00  0.00000000E+00  0.00000000E+00
  0.00000000E+00  0.00000000E+00  0.00000000E+00  0.00000000E+00  0.00000000E+00
  0.00000000E+00  0.00000000E+00  0.00000000E+00  0.00000000E+00  0.00000000E+00
  0.00000000E+00  0.00000000E+00  0.00000000E+00  0.00000000E+00  0.00000000E+00
  0.00000000E+00  0.00000000E+00  0.00000000E+00  0.00000000E+00  0.00000000E+00
  0.00000000E+00  0.00000000E+00  0.00000000E+00  0.00000000E+00  0.00000000E+00
  0.00000000E+00  0.00000000E+00  0.00000000E+00  0.00000000E+00  0.00000000E+00
  0.00000000E+00  0.00000000E+00  0.00000000E+00  0.00000000E+00  0.00000000E+00
  0.00000000E+00  0.00000000E+00  0.00000000E+00  0.00000000E+00  0.00000000E+00
  0.00000000E+00  0.00000000E+00  0.00000000E+00  0.00000000E+00  0.00000000E+00
  0.00000000E+00  0.00000000E+00  0.00000000E+00  0.00000000E+00  0.00000000E+00
  0.00000000E+00  0.00000000E+00  0.00000000E+00  0.00000000E+00  0.00000000E+00
  0.00000000E+00  0.00000000E+00  0.00000000E+00  0.00000000E+00  0.00000000E+00
  0.00000000E+00  0.00000000E+00  0.00000000E+00  0.00000000E+00  0.00000000E+00
  0.00000000E+00  0.00000000E+00  0.00000000E+00  0.00000000E+00  0.00000000E+00
  0.00000000E+00  0.00000000E+00  0.00000000E+00  0.00000000E+00
MO    2                     OCC NO =   1.00000000 ORB. ENERGY = -11.29572982
 -8.40099531E-01 -6.47136088E-01 -6.87310648E-01 -8.25114746E-01 -1.07593922E+00
 -1.45185667E+00 -1.91750670E+00 -2.32943167E+00 -2.33110758E+00 -1.60772771E+00
 -1.69059366E-01 -6.08625920E-01 -1.13424476E+00 -1.24604680E+00  8.05345380E-01
  1.38696430E+00  5.41052098E-01  3.06706953E-02 -3.13679636E-03  3.98748503E-04
  0.00000000E+00  0.00000000E+00  0.00000000E+00  0.00000000E+00  0.00000000E+00
  0.00000000E+00  0.00000000E+00  0.00000000E+00  0.00000000E+00  0.00000000E+00
  0.00000000E+00  0.00000000E+00  0.00000000E+00  0.00000000E+00  0.00000000E+00
  0.00000000E+00  0.00000000E+00  0.00000000E+00  0.00000000E+00  0.00000000E+00
  0.00000000E+00  0.00000000E+00  0.00000000E+00  0.00000000E+00  0.00000000E+00
  0.00000000E+00  0.00000000E+00  0.00000000E+00  0.00000000E+00  0.00000000E+00
  0.00000000E+00  0.00000000E+00  0.00000000E+00  0.00000000E+00  0.00000000E+00
  0.00000000E+00  0.00000000E+00  0.00000000E+00  0.00000000E+00  0.00000000E+00
  0.00000000E+00  0.00000000E+00  0.00000000E+00  0.00000000E+00  0.00000000E+00
  0.00000000E+00  0.00000000E+00  0.00000000E+00  0.00000000E+00  0.00000000E+00
  0.00000000E+00  0.00000000E+00  0.00000000E+00  0.00000000E+00  0.00000000E+00
  0.00000000E+00  0.00000000E+00  0.00000000E+00  0.00000000E+00  0.00000000E+00
  0.00000000E+00  0.00000000E+00  0.00000000E+00  0.00000000E+00  0.00000000E+00
  0.00000000E+00  0.00000000E+00  0.00000000E+00  0.00000000E+00  0.00000000E+00
  0.00000000E+00  0.00000000E+00  0.00000000E+00  0.00000000E+00  0.00000000E+00
  0.00000000E+00  0.00000000E+00  0.00000000E+00  0.00000000E+00  0.00000000E+00
  0.00000000E+00  0.00000000E+00  0.00000000E+00  0.00000000E+00  0.00000000E+00
  0.00000000E+00  0.00000000E+00  0.00000000E+00  0.00000000E+00  0.00000000E+00
  0.00000000E+00  0.00000000E+00  0.00000000E+00  0.00000000E+00  0.00000000E+00
  0.00000000E+00  0.00000000E+00  0.00000000E+00  0.00000000E+00  0.00000000E+00
  0.00000000E+00  0.00000000E+00  0.00000000E+00  0.00000000E+00
MO    3                     OCC NO =   1.00000000 ORB. ENERGY =  -1.00026576
  2.73599717E-01  2.10756279E-01  2.23840143E-01  2.68719542E-01  3.50406894E-01
  4.72833943E-01  6.24484685E-01  7.58638500E-01  7.59184301E-01  5.23597301E-01
  6.19372908E-02  2.22978716E-01  4.15546616E-01  4.58696733E-01 -3.50928051E-01
 -7.31233944E-01 -4.63087507E-01  2.25121814E-01  2.41640806E-01  4.56026440E-02
  0.00000000E+00  0.00000000E+00  0.00000000E+00  0.00000000E+00  0.00000000E+00
  0.00000000E+00  0.00000000E+00  0.00000000E+00  0.00000000E+00  0.00000000E+00
  0.00000000E+00  0.00000000E+00  0.00000000E+00  0.00000000E+00  0.00000000E+00
  0.00000000E+00  0.00000000E+00  0.00000000E+00  0.00000000E+00  0.00000000E+00
  0.00000000E+00  0.00000000E+00  0.00000000E+00  0.00000000E+00  0.00000000E+00
  0.00000000E+00  0.00000000E+00  0.00000000E+00  0.00000000E+00  0.00000000E+00
  0.00000000E+00  0.00000000E+00  0.00000000E+00  0.00000000E+00  0.00000000E+00
  0.00000000E+00  0.00000000E+00  0.00000000E+00  0.00000000E+00  0.00000000E+00
  0.00000000E+00  0.00000000E+00  0.00000000E+00  0.00000000E+00  0.00000000E+00
  0.00000000E+00  0.00000000E+00  0.00000000E+00  0.00000000E+00  0.00000000E+00
  0.00000000E+00  0.00000000E+00  0.00000000E+00  0.00000000E+00  0.00000000E+00
  0.00000000E+00  0.00000000E+00  0.00000000E+00  0.00000000E+00  0.00000000E+00
  0.00000000E+00  0.00000000E+00  0.00000000E+00  0.00000000E+00  0.00000000E+00
  0.00000000E+00  0.00000000E+00  0.00000000E+00  0.00000000E+00  0.00000000E+00
  0.00000000E+00  0.00000000E+00  0.00000000E+00  0.00000000E+00  0.00000000E+00
  0.00000000E+00  0.00000000E+00  0.00000000E+00  0.00000000E+00  0.00000000E+00
  0.00000000E+00  0.00000000E+00  0.00000000E+00  0.00000000E+00  0.00000000E+00
  0.00000000E+00  0.00000000E+00  0.00000000E+00  0.00000000E+00  0.00000000E+00
  0.00000000E+00  0.00000000E+00  0.00000000E+00  0.00000000E+00  0.00000000E+00
  0.00000000E+00  0.00000000E+00  0.00000000E+00  0.00000000E+00  0.00000000E+00
  0.00000000E+00  0.00000000E+00  0.00000000E+00  0.00000000E+00
MO    4                     OCC NO =   1.00000000 ORB. ENERGY =  -8.73863733
  0.00000000E+00  0.00000000E+00  0.00000000E+00  0.00000000E+00  0.00000000E+00
  0.00000000E+00  0.00000000E+00  0.00000000E+00  0.00000000E+00  0.00000000E+00
  0.00000000E+00  0.00000000E+00  0.00000000E+00  0.00000000E+00  0.00000000E+00
  0.00000000E+00  0.00000000E+00  0.00000000E+00  0.00000000E+00  0.00000000E+00
 -1.24316316E-01  0.00000000E+00  0.00000000E+00  8.34345784E-02  0.00000000E+00
  0.00000000E+00  7.17137539E+00  0.00000000E+00  0.00000000E+00  6.91885798E+00
  0.00000000E+00  0.00000000E+00  9.97621936E+00  0.00000000E+00  0.00000000E+00
  1.39441818E+01  0.00000000E+00  0.00000000E+00  1.68887805E+01  0.00000000E+00
  0.00000000E+00  1.67893652E+01  0.00000000E+00  0.00000000E+00  1.21588544E+01
  0.00000000E+00  0.00000000E+00  5.69609951E+00  0.00000000E+00  0.00000000E+00
  1.72678596E+00  0.00000000E+00  0.00000000E+00  1.69731276E-01  0.00000000E+00
  0.00000000E+00 -1.36121119E-04  0.00000000E+00  0.00000000E+00  1.64555013E-04
  0.00000000E+00  0.00000000E+00 -8.95176158E-06  0.00000000E+00  0.00000000E+00
  0.00000000E+00  0.00000000E+00  0.00000000E+00  0.00000000E+00  0.00000000E+00
  0.00000000E+00  0.00000000E+00  0.00000000E+00  0.00000000E+00  0.00000000E+00
  0.00000000E+00  0.00000000E+00  0.00000000E+00  0.00000000E+00  0.00000000E+00
  0.00000000E+00  0.00000000E+00  0.00000000E+00  0.00000000E+00  0.00000000E+00
  0.00000000E+00  0.00000000E+00  0.00000000E+00  0.00000000E+00  0.00000000E+00
  0.00000000E+00  0.00000000E+00  0.00000000E+00  0.00000000E+00  0.00000000E+00
  0.00000000E+00  0.00000000E+00  0.00000000E+00  0.00000000E+00  0.00000000E+00
  0.00000000E+00  0.00000000E+00  0.00000000E+00  0.00000000E+00  0.00000000E+00
  0.00000000E+00  0.00000000E+00  0.00000000E+00  0.00000000E+00  0.00000000E+00
  0.00000000E+00  0.00000000E+00  0.00000000E+00  0.00000000E+00  0.00000000E+00
  0.00000000E+00  0.00000000E+00  0.00000000E+00  0.00000000E+00  0.00000000E+00
  0.00000000E+00  0.00000000E+00  0.00000000E+00  0.00000000E+00
MO    5                     OCC NO =   1.00000000 ORB. ENERGY =  -8.73863733
  0.00000000E+00  0.00000000E+00  0.00000000E+00  0.00000000E+00  0.00000000E+00
  0.00000000E+00  0.00000000E+00  0.00000000E+00  0.00000000E+00  0.00000000E+00
  0.00000000E+00  0.00000000E+00  0.00000000E+00  0.00000000E+00  0.00000000E+00
  0.00000000E+00  0.00000000E+00  0.00000000E+00  0.00000000E+00  0.00000000E+00
  0.00000000E+00 -1.24316316E-01  0.00000000E+00  0.00000000E+00  8.34345784E-02
  0.00000000E+00  0.00000000E+00  7.17137539E+00  0.00000000E+00  0.00000000E+00
  6.91885798E+00  0.00000000E+00  0.00000000E+00  9.97621936E+00  0.00000000E+00
  0.00000000E+00  1.39441818E+01  0.00000000E+00  0.00000000E+00  1.68887805E+01
  0.00000000E+00  0.00000000E+00  1.67893652E+01  0.00000000E+00  0.00000000E+00
  1.21588544E+01  0.00000000E+00  0.00000000E+00  5.69609951E+00  0.00000000E+00
  0.00000000E+00  1.72678596E+00  0.00000000E+00  0.00000000E+00  1.69731276E-01
  0.00000000E+00  0.00000000E+00 -1.36121119E-04  0.00000000E+00  0.00000000E+00
  1.64555013E-04  0.00000000E+00  0.00000000E+00 -8.95176158E-06  0.00000000E+00
  0.00000000E+00  0.00000000E+00  0.00000000E+00  0.00000000E+00  0.00000000E+00
  0.00000000E+00  0.00000000E+00  0.00000000E+00  0.00000000E+00  0.00000000E+00
  0.00000000E+00  0.00000000E+00  0.00000000E+00  0.00000000E+00  0.00000000E+00
  0.00000000E+00  0.00000000E+00  0.00000000E+00  0.00000000E+00  0.00000000E+00
  0.00000000E+00  0.00000000E+00  0.00000000E+00  0.00000000E+00  0.00000000E+00
  0.00000000E+00  0.00000000E+00  0.00000000E+00  0.00000000E+00  0.00000000E+00
  0.00000000E+00  0.00000000E+00  0.00000000E+00  0.00000000E+00  0.00000000E+00
  0.00000000E+00  0.00000000E+00  0.00000000E+00  0.00000000E+00  0.00000000E+00
  0.00000000E+00  0.00000000E+00  0.00000000E+00  0.00000000E+00  0.00000000E+00
  0.00000000E+00  0.00000000E+00  0.00000000E+00  0.00000000E+00  0.00000000E+00
  0.00000000E+00  0.00000000E+00  0.00000000E+00  0.00000000E+00  0.00000000E+00
  0.00000000E+00  0.00000000E+00  0.00000000E+00  0.00000000E+00
MO    6                     OCC NO =   1.00000000 ORB. ENERGY =  -8.73863733
  0.00000000E+00  0.00000000E+00  0.00000000E+00  0.00000000E+00  0.00000000E+00
  0.00000000E+00  0.00000000E+00  0.00000000E+00  0.00000000E+00  0.00000000E+00
  0.00000000E+00  0.00000000E+00  0.00000000E+00  0.00000000E+00  0.00000000E+00
  0.00000000E+00  0.00000000E+00  0.00000000E+00  0.00000000E+00  0.00000000E+00
  0.00000000E+00  0.00000000E+00 -1.24316316E-01  0.00000000E+00  0.00000000E+00
  8.34345784E-02  0.00000000E+00  0.00000000E+00  7.17137539E+00  0.00000000E+00
  0.00000000E+00  6.91885798E+00  0.00000000E+00  0.00000000E+00  9.97621936E+00
  0.00000000E+00  0.00000000E+00  1.39441818E+01  0.00000000E+00  0.00000000E+00
  1.68887805E+01  0.00000000E+00  0.00000000E+00  1.67893652E+01  0.00000000E+00
  0.00000000E+00  1.21588544E+01  0.00000000E+00  0.00000000E+00  5.69609951E+00
  0.00000000E+00  0.00000000E+00  1.72678596E+00  0.00000000E+00  0.00000000E+00
  1.69731276E-01  0.00000000E+00  0.00000000E+00 -1.36121119E-04  0.00000000E+00
  0.00000000E+00  1.64555013E-04  0.00000000E+00  0.00000000E+00 -8.95176158E-06
  0.00000000E+00  0.00000000E+00  0.00000000E+00  0.00000000E+00  0.00000000E+00
  0.00000000E+00  0.00000000E+00  0.00000000E+00  0.00000000E+00  0.00000000E+00
  0.00000000E+00  0.00000000E+00  0.00000000E+00  0.00000000E+00  0.00000000E+00
  0.00000000E+00  0.00000000E+00  0.00000000E+00  0.00000000E+00  0.00000000E+00
  0.00000000E+00  0.00000000E+00  0.00000000E+00  0.00000000E+00  0.00000000E+00
  0.00000000E+00  0.00000000E+00  0.00000000E+00  0.00000000E+00  0.00000000E+00
  0.00000000E+00  0.00000000E+00  0.00000000E+00  0.00000000E+00  0.00000000E+00
  0.00000000E+00  0.00000000E+00  0.00000000E+00  0.00000000E+00  0.00000000E+00
  0.00000000E+00  0.00000000E+00  0.00000000E+00  0.00000000E+00  0.00000000E+00
  0.00000000E+00  0.00000000E+00  0.00000000E+00  0.00000000E+00  0.00000000E+00
  0.00000000E+00  0.00000000E+00  0.00000000E+00  0.00000000E+00  0.00000000E+00
  0.00000000E+00  0.00000000E+00  0.00000000E+00  0.00000000E+00
MO    7                     OCC NO =   1.00000000 ORB. ENERGY =  -0.43927798
  0.00000000E+00  0.00000000E+00  0.00000000E+00  0.00000000E+00  0.00000000E+00
  0.00000000E+00  0.00000000E+00  0.00000000E+00  0.00000000E+00  0.00000000E+00
  0.00000000E+00  0.00000000E+00  0.00000000E+00  0.00000000E+00  0.00000000E+00
  0.00000000E+00  0.00000000E+00  0.00000000E+00  0.00000000E+00  0.00000000E+00
  2.97532618E-01  0.00000000E+00  0.00000000E+00 -1.99688257E-01  0.00000000E+00
  0.00000000E+00 -2.19029962E+00  0.00000000E+00  0.00000000E+00 -2.11317511E+00
  0.00000000E+00  0.00000000E+00 -3.04696216E+00  0.00000000E+00  0.00000000E+00
 -4.25886730E+00  0.00000000E+00  0.00000000E+00 -5.15821409E+00  0.00000000E+00
  0.00000000E+00 -5.12785042E+00  0.00000000E+00  0.00000000E+00 -3.71358807E+00
  0.00000000E+00  0.00000000E+00 -1.73971713E+00  0.00000000E+00  0.00000000E+00
 -5.27399337E-01  0.00000000E+00  0.00000000E+00  4.08990159E-01  0.00000000E+00
  0.00000000E+00  3.57220023E-01  0.00000000E+00  0.00000000E+00  1.16375833E-01
  0.00000000E+00  0.00000000E+00  1.41250060E-02  0.00000000E+00  0.00000000E+00
  0.00000000E+00  0.00000000E+00  0.00000000E+00  0.00000000E+00  0.00000000E+00
  0.00000000E+00  0.00000000E+00  0.00000000E+00  0.00000000E+00  0.00000000E+00
  0.00000000E+00  0.00000000E+00  0.00000000E+00  0.00000000E+00  0.00000000E+00
  0.00000000E+00  0.00000000E+00  0.00000000E+00  0.00000000E+00  0.00000000E+00
  0.00000000E+00  0.00000000E+00  0.00000000E+00  0.00000000E+00  0.00000000E+00
  0.00000000E+00  0.00000000E+00  0.00000000E+00  0.00000000E+00  0.00000000E+00
  0.00000000E+00  0.00000000E+00  0.00000000E+00  0.00000000E+00  0.00000000E+00
  0.00000000E+00  0.00000000E+00  0.00000000E+00  0.00000000E+00  0.00000000E+00
  0.00000000E+00  0.00000000E+00  0.00000000E+00  0.00000000E+00  0.00000000E+00
  0.00000000E+00  0.00000000E+00  0.00000000E+00  0.00000000E+00  0.00000000E+00
  0.00000000E+00  0.00000000E+00  0.00000000E+00  0.00000000E+00  0.00000000E+00
  0.00000000E+00  0.00000000E+00  0.00000000E+00  0.00000000E+00
MO    8                     OCC NO =   1.00000000 ORB. ENERGY =  -0.43927798
  0.00000000E+00  0.00000000E+00  0.00000000E+00  0.00000000E+00  0.00000000E+00
  0.00000000E+00  0.00000000E+00  0.00000000E+00  0.00000000E+00  0.00000000E+00
  0.00000000E+00  0.00000000E+00  0.00000000E+00  0.00000000E+00  0.00000000E+00
  0.00000000E+00  0.00000000E+00  0.00000000E+00  0.00000000E+00  0.00000000E+00
  0.00000000E+00  2.97532618E-01  0.00000000E+00  0.00000000E+00 -1.99688257E-01
  0.00000000E+00  0.00000000E+00 -2.19029962E+00  0.00000000E+00  0.00000000E+00
 -2.11317511E+00  0.00000000E+00  0.00000000E+00 -3.04696216E+00  0.00000000E+00
  0.00000000E+00 -4.25886730E+00  0.00000000E+00  0.00000000E+00 -5.15821409E+00
  0.00000000E+00  0.00000000E+00 -5.12785042E+00  0.00000000E+00  0.00000000E+00
 -3.71358807E+00  0.00000000E+00  0.00000000E+00 -1.73971713E+00  0.00000000E+00
  0.00000000E+00 -5.27399337E-01  0.00000000E+00  0.00000000E+00  4.08990159E-01
  0.00000000E+00  0.00000000E+00  3.57220023E-01  0.00000000E+00  0.00000000E+00
  1.16375833E-01  0.00000000E+00  0.00000000E+00  1.41250060E-02  0.00000000E+00
  0.00000000E+00  0.00000000E+00  0.00000000E+00  0.00000000E+00  0.00000000E+00
  0.00000000E+00  0.00000000E+00  0.00000000E+00  0.00000000E+00  0.00000000E+00
  0.00000000E+00  0.00000000E+00  0.00000000E+00  0.00000000E+00  0.00000000E+00
  0.00000000E+00  0.00000000E+00  0.00000000E+00  0.00000000E+00  0.00000000E+00
  0.00000000E+00  0.00000000E+00  0.00000000E+00  0.00000000E+00  0.00000000E+00
  0.00000000E+00  0.00000000E+00  0.00000000E+00  0.00000000E+00  0.00000000E+00
  0.00000000E+00  0.00000000E+00  0.00000000E+00  0.00000000E+00  0.00000000E+00
  0.00000000E+00  0.00000000E+00  0.00000000E+00  0.00000000E+00  0.00000000E+00
  0.00000000E+00  0.00000000E+00  0.00000000E+00  0.00000000E+00  0.00000000E+00
  0.00000000E+00  0.00000000E+00  0.00000000E+00  0.00000000E+00  0.00000000E+00
  0.00000000E+00  0.00000000E+00  0.00000000E+00  0.00000000E+00  0.00000000E+00
  0.00000000E+00  0.00000000E+00  0.00000000E+00  0.00000000E+00
MO    9                     OCC NO =   1.00000000 ORB. ENERGY =  -0.43927798
  0.00000000E+00  0.00000000E+00  0.00000000E+00  0.00000000E+00  0.00000000E+00
  0.00000000E+00  0.00000000E+00  0.00000000E+00  0.00000000E+00  0.00000000E+00
  0.00000000E+00  0.00000000E+00  0.00000000E+00  0.00000000E+00  0.00000000E+00
  0.00000000E+00  0.00000000E+00  0.00000000E+00  0.00000000E+00  0.00000000E+00
  0.00000000E+00  0.00000000E+00  2.97532618E-01  0.00000000E+00  0.00000000E+00
 -1.99688257E-01  0.00000000E+00  0.00000000E+00 -2.19029962E+00  0.00000000E+00
  0.00000000E+00 -2.11317511E+00  0.00000000E+00  0.00000000E+00 -3.04696216E+00
  0.00000000E+00  0.00000000E+00 -4.25886730E+00  0.00000000E+00  0.00000000E+00
 -5.15821409E+00  0.00000000E+00  0.00000000E+00 -5.12785042E+00  0.00000000E+00
  0.00000000E+00 -3.71358807E+00  0.00000000E+00  0.00000000E+00 -1.73971713E+00
  0.00000000E+00  0.00000000E+00 -5.27399337E-01  0.00000000E+00  0.00000000E+00
  4.08990159E-01  0.00000000E+00  0.00000000E+00  3.57220023E-01  0.00000000E+00
  0.00000000E+00  1.16375833E-01  0.00000000E+00  0.00000000E+00  1.41250060E-02
  0.00000000E+00  0.00000000E+00  0.00000000E+00  0.00000000E+00  0.00000000E+00
  0.00000000E+00  0.00000000E+00  0.00000000E+00  0.00000000E+00  0.00000000E+00
  0.00000000E+00  0.00000000E+00  0.00000000E+00  0.00000000E+00  0.00000000E+00
  0.00000000E+00  0.00000000E+00  0.00000000E+00  0.00000000E+00  0.00000000E+00
  0.00000000E+00  0.00000000E+00  0.00000000E+00  0.00000000E+00  0.00000000E+00
  0.00000000E+00  0.00000000E+00  0.00000000E+00  0.00000000E+00  0.00000000E+00
  0.00000000E+00  0.00000000E+00  0.00000000E+00  0.00000000E+00  0.00000000E+00
  0.00000000E+00  0.00000000E+00  0.00000000E+00  0.00000000E+00  0.00000000E+00
  0.00000000E+00  0.00000000E+00  0.00000000E+00  0.00000000E+00  0.00000000E+00
  0.00000000E+00  0.00000000E+00  0.00000000E+00  0.00000000E+00  0.00000000E+00
  0.00000000E+00  0.00000000E+00  0.00000000E+00  0.00000000E+00  0.00000000E+00
  0.00000000E+00  0.00000000E+00  0.00000000E+00  0.00000000E+00
MO   11                    OCC NO =   1.00000000 ORB. ENERGY = -115.73848483
  2.89671100E+00  2.23136207E+00  2.36988624E+00  2.84504261E+00  3.70989969E+00
  5.00608443E+00  6.61167226E+00  8.03201302E+00  8.03779163E+00  5.54353666E+00
 -1.98861485E-03 -7.15915698E-03 -1.33419167E-02  1.94358570E+00  1.40304662E-01
 -9.68430352E-03  2.12400250E-03 -3.65785394E-04  9.12030330E-05 -1.26357316E-05
  0.00000000E+00  0.00000000E+00  0.00000000E+00  0.00000000E+00  0.00000000E+00
  0.00000000E+00  0.00000000E+00  0.00000000E+00  0.00000000E+00  0.00000000E+00
  0.00000000E+00  0.00000000E+00  0.00000000E+00  0.00000000E+00  0.00000000E+00
  0.00000000E+00  0.00000000E+00  0.00000000E+00  0.00000000E+00  0.00000000E+00
  0.00000000E+00  0.00000000E+00  0.00000000E+00  0.00000000E+00  0.00000000E+00
  0.00000000E+00  0.00000000E+00  0.00000000E+00  0.00000000E+00  0.00000000E+00
  0.00000000E+00  0.00000000E+00  0.00000000E+00  0.00000000E+00  0.00000000E+00
  0.00000000E+00  0.00000000E+00  0.00000000E+00  0.00000000E+00  0.00000000E+00
  0.00000000E+00  0.00000000E+00  0.00000000E+00  0.00000000E+00  0.00000000E+00
  0.00000000E+00  0.00000000E+00  0.00000000E+00  0.00000000E+00  0.00000000E+00
  0.00000000E+00  0.00000000E+00  0.00000000E+00  0.00000000E+00  0.00000000E+00
  0.00000000E+00  0.00000000E+00  0.00000000E+00  0.00000000E+00  0.00000000E+00
  0.00000000E+00  0.00000000E+00  0.00000000E+00  0.00000000E+00  0.00000000E+00
  0.00000000E+00  0.00000000E+00  0.00000000E+00  0.00000000E+00  0.00000000E+00
  0.00000000E+00  0.00000000E+00  0.00000000E+00  0.00000000E+00  0.00000000E+00
  0.00000000E+00  0.00000000E+00  0.00000000E+00  0.00000000E+00  0.00000000E+00
  0.00000000E+00  0.00000000E+00  0.00000000E+00  0.00000000E+00  0.00000000E+00
  0.00000000E+00  0.00000000E+00  0.00000000E+00  0.00000000E+00  0.00000000E+00
  0.00000000E+00  0.00000000E+00  0.00000000E+00  0.00000000E+00  0.00000000E+00
  0.00000000E+00  0.00000000E+00  0.00000000E+00  0.00000000E+00  0.00000000E+00
  0.00000000E+00  0.00000000E+00  0.00000000E+00  0.00000000E+00
MO   12                    OCC NO =   1.00000000 ORB. ENERGY = -11.29572982
 -8.40099531E-01 -6.47136088E-01 -6.87310648E-01 -8.25114746E-01 -1.07593922E+00
 -1.45185667E+00 -1.91750670E+00 -2.32943167E+00 -2.33110758E+00 -1.60772771E+00
 -1.69059366E-01 -6.08625920E-01 -1.13424476E+00 -1.24604680E+00  8.05345380E-01
  1.38696430E+00  5.41052098E-01  3.06706953E-02 -3.13679636E-03  3.98748503E-04
  0.00000000E+00  0.00000000E+00  0.00000000E+00  0.00000000E+00  0.00000000E+00
  0.00000000E+00  0.00000000E+00  0.00000000E+00  0.00000000E+00  0.00000000E+00
  0.00000000E+00  0.00000000E+00  0.00000000E+00  0.00000000E+00  0.00000000E+00
  0.00000000E+00  0.00000000E+00  0.00000000E+00  0.00000000E+00  0.00000000E+00
  0.00000000E+00  0.00000000E+00  0.00000000E+00  0.00000000E+00  0.00000000E+00
  0.00000000E+00  0.00000000E+00  0.00000000E+00  0.00000000E+00  0.00000000E+00
  0.00000000E+00  0.00000000E+00  0.00000000E+00  0.00000000E+00  0.00000000E+00
  0.00000000E+00  0.00000000E+00  0.00000000E+00  0.00000000E+00  0.00000000E+00
  0.00000000E+00  0.00000000E+00  0.00000000E+00  0.00000000E+00  0.00000000E+00
  0.00000000E+00  0.00000000E+00  0.00000000E+00  0.00000000E+00  0.00000000E+00
  0.00000000E+00  0.00000000E+00  0.00000000E+00  0.00000000E+00  0.00000000E+00
  0.00000000E+00  0.00000000E+00  0.00000000E+00  0.00000000E+00  0.00000000E+00
  0.00000000E+00  0.00000000E+00  0.00000000E+00  0.00000000E+00  0.00000000E+00
  0.00000000E+00  0.00000000E+00  0.00000000E+00  0.00000000E+00  0.00000000E+00
  0.00000000E+00  0.00000000E+00  0.00000000E+00  0.00000000E+00  0.00000000E+00
  0.00000000E+00  0.00000000E+00  0.00000000E+00  0.00000000E+00  0.00000000E+00
  0.00000000E+00  0.00000000E+00  0.00000000E+00  0.00000000E+00  0.00000000E+00
  0.00000000E+00  0.00000000E+00  0.00000000E+00  0.00000000E+00  0.00000000E+00
  0.00000000E+00  0.00000000E+00  0.00000000E+00  0.00000000E+00  0.00000000E+00
  0.00000000E+00  0.00000000E+00  0.00000000E+00  0.00000000E+00  0.00000000E+00
  0.00000000E+00  0.00000000E+00  0.00000000E+00  0.00000000E+00
MO   13                    OCC NO =   1.00000000 ORB. ENERGY =  -1.00026576
  2.73599717E-01  2.10756279E-01  2.23840143E-01  2.68719542E-01  3.50406894E-01
  4.72833943E-01  6.24484685E-01  7.58638500E-01  7.59184301E-01  5.23597301E-01
  6.19372908E-02  2.22978716E-01  4.15546616E-01  4.58696733E-01 -3.50928051E-01
 -7.31233944E-01 -4.63087507E-01  2.25121814E-01  2.41640806E-01  4.56026440E-02
  0.00000000E+00  0.00000000E+00  0.00000000E+00  0.00000000E+00  0.00000000E+00
  0.00000000E+00  0.00000000E+00  0.00000000E+00  0.00000000E+00  0.00000000E+00
  0.00000000E+00  0.00000000E+00  0.00000000E+00  0.00000000E+00  0.00000000E+00
  0.00000000E+00  0.00000000E+00  0.00000000E+00  0.00000000E+00  0.00000000E+00
  0.00000000E+00  0.00000000E+00  0.00000000E+00  0.00000000E+00  0.00000000E+00
  0.00000000E+00  0.00000000E+00  0.00000000E+00  0.00000000E+00  0.00000000E+00
  0.00000000E+00  0.00000000E+00  0.00000000E+00  0.00000000E+00  0.00000000E+00
  0.00000000E+00  0.00000000E+00  0.00000000E+00  0.00000000E+00  0.00000000E+00
  0.00000000E+00  0.00000000E+00  0.00000000E+00  0.00000000E+00  0.00000000E+00
  0.00000000E+00  0.00000000E+00  0.00000000E+00  0.00000000E+00  0.00000000E+00
  0.00000000E+00  0.00000000E+00  0.00000000E+00  0.00000000E+00  0.00000000E+00
  0.00000000E+00  0.00000000E+00  0.00000000E+00  0.00000000E+00  0.00000000E+00
  0.00000000E+00  0.00000000E+00  0.00000000E+00  0.00000000E+00  0.00000000E+00
  0.00000000E+00  0.00000000E+00  0.00000000E+00  0.00000000E+00  0.00000000E+00
  0.00000000E+00  0.00000000E+00  0.00000000E+00  0.00000000E+00  0.00000000E+00
  0.00000000E+00  0.00000000E+00  0.00000000E+00  0.00000000E+00  0.00000000E+00
  0.00000000E+00  0.00000000E+00  0.00000000E+00  0.00000000E+00  0.00000000E+00
  0.00000000E+00  0.00000000E+00  0.00000000E+00  0.00000000E+00  0.00000000E+00
  0.00000000E+00  0.00000000E+00  0.00000000E+00  0.00000000E+00  0.00000000E+00
  0.00000000E+00  0.00000000E+00  0.00000000E+00  0.00000000E+00  0.00000000E+00
  0.00000000E+00  0.00000000E+00  0.00000000E+00  0.00000000E+00
MO   14                    OCC NO =   1.00000000 ORB. ENERGY =  -8.73863733
  0.00000000E+00  0.00000000E+00  0.00000000E+00  0.00000000E+00  0.00000000E+00
  0.00000000E+00  0.00000000E+00  0.00000000E+00  0.00000000E+00  0.00000000E+00
  0.00000000E+00  0.00000000E+00  0.00000000E+00  0.00000000E+00  0.00000000E+00
  0.00000000E+00  0.00000000E+00  0.00000000E+00  0.00000000E+00  0.00000000E+00
 -1.24316316E-01  0.00000000E+00  0.00000000E+00  8.34345784E-02  0.00000000E+00
  0.00000000E+00  7.17137539E+00  0.00000000E+00  0.00000000E+00  6.91885798E+00
  0.00000000E+00  0.00000000E+00  9.97621936E+00  0.00000000E+00  0.00000000E+00
  1.39441818E+01  0.00000000E+00  0.00000000E+00  1.68887805E+01  0.00000000E+00
  0.00000000E+00  1.67893652E+01  0.00000000E+00  0.00000000E+00  1.21588544E+01
  0.00000000E+00  0.00000000E+00  5.69609951E+00  0.00000000E+00  0.00000000E+00
  1.72678596E+00  0.00000000E+00  0.00000000E+00  1.69731276E-01  0.00000000E+00
  0.00000000E+00 -1.36121119E-04  0.00000000E+00  0.00000000E+00  1.64555013E-04
  0.00000000E+00  0.00000000E+00 -8.95176158E-06  0.00000000E+00  0.00000000E+00
  0.00000000E+00  0.00000000E+00  0.00000000E+00  0.00000000E+00  0.00000000E+00
  0.00000000E+00  0.00000000E+00  0.00000000E+00  0.00000000E+00  0.00000000E+00
  0.00000000E+00  0.00000000E+00  0.00000000E+00  0.00000000E+00  0.00000000E+00
  0.00000000E+00  0.00000000E+00  0.00000000E+00  0.00000000E+00  0.00000000E+00
  0.00000000E+00  0.00000000E+00  0.00000000E+00  0.00000000E+00  0.00000000E+00
  0.00000000E+00  0.00000000E+00  0.00000000E+00  0.00000000E+00  0.00000000E+00
  0.00000000E+00  0.00000000E+00  0.00000000E+00  0.00000000E+00  0.00000000E+00