atomref-proatoms As_q0_mult4_nist x2c-QZVPall
GAUSSIAN             33 MOL ORBITALS    185 PRIMITIVES        1 NUCLEI
  As   1    (CENTRE  1)   0.00000000  0.00000000  0.00000000  CHARGE = 33.0
CENTRE ASSIGNMENTS    1  1  1  1  1  1  1  1  1  1  1  1  1  1  1  1  1  1  1  1
CENTRE ASSIGNMENTS    1  1  1  1  1  1  1  1  1  1  1  1  1  1  1  1  1  1  1  1
CENTRE ASSIGNMENTS    1  1  1  1  1  1  1  1  1  1  1  1  1  1  1  1  1  1  1  1
CENTRE ASSIGNMENTS    1  1  1  1  1  1  1  1  1  1  1  1  1  1  1  1  1  1  1  1
CENTRE ASSIGNMENTS    1  1  1  1  1  1  1  1  1  1  1  1  1  1  1  1  1  1  1  1
CENTRE ASSIGNMENTS    1  1  1  1  1  1  1  1  1  1  1  1  1  1  1  1  1  1  1  1
CENTRE ASSIGNMENTS    1  1  1  1  1  1  1  1  1  1  1  1  1  1  1  1  1  1  1  1
CENTRE ASSIGNMENTS    1  1  1  1  1  1  1  1  1  1  1  1  1  1  1  1  1  1  1  1
CENTRE ASSIGNMENTS    1  1  1  1  1  1  1  1  1  1  1  1  1  1  1  1  1  1  1  1
CENTRE ASSIGNMENTS    1  1  1  1  1
TYPE ASSIGNMENTS      1  1  1  1  1  1  1  1  1  1  1  1  1  1  1  1  1  1  1  1
TYPE ASSIGNMENTS      1  1  1  1  2  3  4  2  3  4  2  3  4  2  3  4  2  3  4  2
TYPE ASSIGNMENTS      3  4  2  3  4  2  3  4  2  3  4  2  3  4  2  3  4  2  3  4
TYPE ASSIGNMENTS      2  3  4  2  3  4  2  3  4  2  3  4  2  3  4  2  3  4  2  3
TYPE ASSIGNMENTS      4  2  3  4  2  3  4  2  3  4  5  8  9  6 10  7  5  8  9  6
TYPE ASSIGNMENTS     10  7  5  8  9  6 10  7  5  8  9  6 10  7  5  8  9  6 10  7
TYPE ASSIGNMENTS      5  8  9  6 10  7  5  8  9  6 10  7  5  8  9  6 10  7  5  8
TYPE ASSIGNMENTS      9  6 10  7  5  8  9  6 10  7 11 14 15 17 20 18 12 16 19 13
TYPE ASSIGNMENTS     11 14 15 17 20 18 12 16 19 13 21 24 25 30 33 31 26 34 35 28
TYPE ASSIGNMENTS     22 27 32 29 23
EXPONENTS  2.1692315E+07 3.0697594E+06 6.4490493E+05 1.7030515E+05 5.2544590E+04
EXPONENTS  1.8227158E+04 6.9045760E+03 2.7804273E+03 1.2235489E+03 5.5883677E+02
EXPONENTS  2.5939964E+02 2.8082547E+03 9.2033994E+02 3.6084567E+02 1.6151076E+02
EXPONENTS  7.8430221E+01 3.2730959E+01 1.5268094E+01 6.7370621E+00 3.2133824E+00
EXPONENTS  1.4517286E+00 4.2592827E-01 2.0154962E-01 8.6233598E-02 8.7646782E+04
EXPONENTS  8.7646782E+04 8.7646782E+04 2.3016989E+04 2.3016989E+04 2.3016989E+04
EXPONENTS  6.7698506E+03 6.7698506E+03 6.7698506E+03 2.2301171E+03 2.2301171E+03
EXPONENTS  2.2301171E+03 8.2280000E+02 8.2280000E+02 8.2280000E+02 3.4051557E+02
EXPONENTS  3.4051557E+02 3.4051557E+02 1.5052617E+02 1.5052617E+02 1.5052617E+02
EXPONENTS  7.0861877E+01 7.0861877E+01 7.0861877E+01 3.4977837E+01 3.4977837E+01
EXPONENTS  3.4977837E+01 1.7920100E+01 1.7920100E+01 1.7920100E+01 9.2967777E+00
EXPONENTS  9.2967777E+00 9.2967777E+00 2.8000000E+01 2.8000000E+01 2.8000000E+01
EXPONENTS  2.1124366E+02 2.1124366E+02 2.1124366E+02 7.8871889E+01 7.8871889E+01
EXPONENTS  7.8871889E+01 3.5984717E+01 3.5984717E+01 3.5984717E+01 8.9724949E+00
EXPONENTS  8.9724949E+00 8.9724949E+00 4.5080532E+00 4.5080532E+00 4.5080532E+00
EXPONENTS  2.2619993E+00 2.2619993E+00 2.2619993E+00 1.1038043E+00 1.1038043E+00
EXPONENTS  1.1038043E+00 4.4026441E-01 4.4026441E-01 4.4026441E-01 1.7930717E-01
EXPONENTS  1.7930717E-01 1.7930717E-01 6.9516457E-02 6.9516457E-02 6.9516457E-02
EXPONENTS  4.8773541E+02 4.8773541E+02 4.8773541E+02 4.8773541E+02 4.8773541E+02
EXPONENTS  4.8773541E+02 1.4513817E+02 1.4513817E+02 1.4513817E+02 1.4513817E+02
EXPONENTS  1.4513817E+02 1.4513817E+02 5.5967636E+01 5.5967636E+01 5.5967636E+01
EXPONENTS  5.5967636E+01 5.5967636E+01 5.5967636E+01 2.4148800E+01 2.4148800E+01
EXPONENTS  2.4148800E+01 2.4148800E+01 2.4148800E+01 2.4148800E+01 1.1114173E+01
EXPONENTS  1.1114173E+01 1.1114173E+01 1.1114173E+01 1.1114173E+01 1.1114173E+01
EXPONENTS  5.2356944E+00 5.2356944E+00 5.2356944E+00 5.2356944E+00 5.2356944E+00
EXPONENTS  5.2356944E+00 2.4510994E+00 2.4510994E+00 2.4510994E+00 2.4510994E+00
EXPONENTS  2.4510994E+00 2.4510994E+00 1.1093744E+00 1.1093744E+00 1.1093744E+00
EXPONENTS  1.1093744E+00 1.1093744E+00 1.1093744E+00 4.4943394E-01 4.4943394E-01
EXPONENTS  4.4943394E-01 4.4943394E-01 4.4943394E-01 4.4943394E-01 1.7000000E-01
EXPONENTS  1.7000000E-01 1.7000000E-01 1.7000000E-01 1.7000000E-01 1.7000000E-01
EXPONENTS  6.4400000E-01 6.4400000E-01 6.4400000E-01 6.4400000E-01 6.4400000E-01
EXPONENTS  6.4400000E-01 6.4400000E-01 6.4400000E-01 6.4400000E-01 6.4400000E-01
EXPONENTS  2.6400000E-01 2.6400000E-01 2.6400000E-01 2.6400000E-01 2.6400000E-01
EXPONENTS  2.6400000E-01 2.6400000E-01 2.6400000E-01 2.6400000E-01 2.6400000E-01
EXPONENTS  5.4650000E-01 5.4650000E-01 5.4650000E-01 5.4650000E-01 5.4650000E-01
EXPONENTS  5.4650000E-01 5.4650000E-01 5.4650000E-01 5.4650000E-01 5.4650000E-01
EXPONENTS  5.4650000E-01 5.4650000E-01 5.4650000E-01 5.4650000E-01 5.4650000E-01
MO    1                     OCC NO =   1.00000000 ORB. ENERGY = -432.39569330
  1.64496692E+01  1.22140376E+01  1.03485644E+01  9.92004502E+00  1.02948221E+01
  1.17890114E+01  1.39942155E+01  1.62007818E+01  1.70224352E+01  1.61875615E+01
  7.84994025E+00  9.65282813E-01  3.04896393E+00  6.72619543E+00  8.67810602E+00
  2.94195158E+00  7.18070773E-02  1.18049835E-02 -5.34666057E-03  1.97335104E-03
 -4.81151246E-04  8.59266020E-05 -3.19327750E-05  4.73871659E-06  0.00000000E+00
  0.00000000E+00  0.00000000E+00  0.00000000E+00  0.00000000E+00  0.00000000E+00
  0.00000000E+00  0.00000000E+00  0.00000000E+00  0.00000000E+00  0.00000000E+00
  0.00000000E+00  0.00000000E+00  0.00000000E+00  0.00000000E+00  0.00000000E+00
  0.00000000E+00  0.00000000E+00  0.00000000E+00  0.00000000E+00  0.00000000E+00
  0.00000000E+00  0.00000000E+00  0.00000000E+00  0.00000000E+00  0.00000000E+00
  0.00000000E+00  0.00000000E+00  0.00000000E+00  0.00000000E+00  0.00000000E+00
  0.00000000E+00  0.00000000E+00  0.00000000E+00  0.00000000E+00  0.00000000E+00
  0.00000000E+00  0.00000000E+00  0.00000000E+00  0.00000000E+00  0.00000000E+00
  0.00000000E+00  0.00000000E+00  0.00000000E+00  0.00000000E+00  0.00000000E+00
  0.00000000E+00  0.00000000E+00  0.00000000E+00  0.00000000E+00  0.00000000E+00
  0.00000000E+00  0.00000000E+00  0.00000000E+00  0.00000000E+00  0.00000000E+00
  0.00000000E+00  0.00000000E+00  0.00000000E+00  0.00000000E+00  0.00000000E+00
  0.00000000E+00  0.00000000E+00  0.00000000E+00  0.00000000E+00  0.00000000E+00
  0.00000000E+00  0.00000000E+00  0.00000000E+00  0.00000000E+00  0.00000000E+00
  0.00000000E+00  0.00000000E+00  0.00000000E+00  0.00000000E+00  0.00000000E+00
  0.00000000E+00  0.00000000E+00  0.00000000E+00  0.00000000E+00  0.00000000E+00
  0.00000000E+00  0.00000000E+00  0.00000000E+00  0.00000000E+00  0.00000000E+00
  0.00000000E+00  0.00000000E+00  0.00000000E+00  0.00000000E+00  0.00000000E+00
  0.00000000E+00  0.00000000E+00  0.00000000E+00  0.00000000E+00  0.00000000E+00
  0.00000000E+00  0.00000000E+00  0.00000000E+00  0.00000000E+00  0.00000000E+00
  0.00000000E+00  0.00000000E+00  0.00000000E+00  0.00000000E+00  0.00000000E+00
  0.00000000E+00  0.00000000E+00  0.00000000E+00  0.00000000E+00  0.00000000E+00
  0.00000000E+00  0.00000000E+00  0.00000000E+00  0.00000000E+00  0.00000000E+00
  0.00000000E+00  0.00000000E+00  0.00000000E+00  0.00000000E+00  0.00000000E+00
  0.00000000E+00  0.00000000E+00  0.00000000E+00  0.00000000E+00  0.00000000E+00
  0.00000000E+00  0.00000000E+00  0.00000000E+00  0.00000000E+00  0.00000000E+00
  0.00000000E+00  0.00000000E+00  0.00000000E+00  0.00000000E+00  0.00000000E+00
  0.00000000E+00  0.00000000E+00  0.00000000E+00  0.00000000E+00  0.00000000E+00
  0.00000000E+00  0.00000000E+00  0.00000000E+00  0.00000000E+00  0.00000000E+00
  0.00000000E+00  0.00000000E+00  0.00000000E+00  0.00000000E+00  0.00000000E+00
  0.00000000E+00  0.00000000E+00  0.00000000E+00  0.00000000E+00  0.00000000E+00
  0.00000000E+00  0.00000000E+00  0.00000000E+00  0.00000000E+00  0.00000000E+00
MO    2                     OCC NO =   1.00000000 ORB. ENERGY = -55.38424537
 -5.35157356E+00 -3.97359482E+00 -3.36670012E+00 -3.22728986E+00 -3.34921614E+00
 -3.83532100E+00 -4.55274041E+00 -5.27060296E+00 -5.53791162E+00 -5.26630202E+00
 -2.55382234E+00 -6.56788925E-01 -2.07454822E+00 -4.57657653E+00 -5.90467772E+00
 -1.35899111E+00  4.20358639E+00  3.23802017E+00  4.60917497E-01 -1.74750066E-02
  4.51943768E-03 -6.94398899E-04  2.51903274E-04 -3.74512657E-05  0.00000000E+00
  0.00000000E+00  0.00000000E+00  0.00000000E+00  0.00000000E+00  0.00000000E+00
  0.00000000E+00  0.00000000E+00  0.00000000E+00  0.00000000E+00  0.00000000E+00
  0.00000000E+00  0.00000000E+00  0.00000000E+00  0.00000000E+00  0.00000000E+00
  0.00000000E+00  0.00000000E+00  0.00000000E+00  0.00000000E+00  0.00000000E+00
  0.00000000E+00  0.00000000E+00  0.00000000E+00  0.00000000E+00  0.00000000E+00
  0.00000000E+00  0.00000000E+00  0.00000000E+00  0.00000000E+00  0.00000000E+00
  0.00000000E+00  0.00000000E+00  0.00000000E+00  0.00000000E+00  0.00000000E+00
  0.00000000E+00  0.00000000E+00  0.00000000E+00  0.00000000E+00  0.00000000E+00
  0.00000000E+00  0.00000000E+00  0.00000000E+00  0.00000000E+00  0.00000000E+00
  0.00000000E+00  0.00000000E+00  0.00000000E+00  0.00000000E+00  0.00000000E+00
  0.00000000E+00  0.00000000E+00  0.00000000E+00  0.00000000E+00  0.00000000E+00
  0.00000000E+00  0.00000000E+00  0.00000000E+00  0.00000000E+00  0.00000000E+00
  0.00000000E+00  0.00000000E+00  0.00000000E+00  0.00000000E+00  0.00000000E+00
  0.00000000E+00  0.00000000E+00  0.00000000E+00  0.00000000E+00  0.00000000E+00
  0.00000000E+00  0.00000000E+00  0.00000000E+00  0.00000000E+00  0.00000000E+00
  0.00000000E+00  0.00000000E+00  0.00000000E+00  0.00000000E+00  0.00000000E+00
  0.00000000E+00  0.00000000E+00  0.00000000E+00  0.00000000E+00  0.00000000E+00
  0.00000000E+00  0.00000000E+00  0.00000000E+00  0.00000000E+00  0.00000000E+00
  0.00000000E+00  0.00000000E+00  0.00000000E+00  0.00000000E+00  0.00000000E+00
  0.00000000E+00  0.00000000E+00  0.00000000E+00  0.00000000E+00  0.00000000E+00
  0.00000000E+00  0.00000000E+00  0.00000000E+00  0.00000000E+00  0.00000000E+00
  0.00000000E+00  0.00000000E+00  0.00000000E+00  0.00000000E+00  0.00000000E+00
  0.00000000E+00  0.00000000E+00  0.00000000E+00  0.00000000E+00  0.00000000E+00
  0.00000000E+00  0.00000000E+00  0.00000000E+00  0.00000000E+00  0.00000000E+00
  0.00000000E+00  0.00000000E+00  0.00000000E+00  0.00000000E+00  0.00000000E+00
  0.00000000E+00  0.00000000E+00  0.00000000E+00  0.00000000E+00  0.00000000E+00
  0.00000000E+00  0.00000000E+00  0.00000000E+00  0.00000000E+00  0.00000000E+00
  0.00000000E+00  0.00000000E+00  0.00000000E+00  0.00000000E+00  0.00000000E+00
  0.00000000E+00  0.00000000E+00  0.00000000E+00  0.00000000E+00  0.00000000E+00
  0.00000000E+00  0.00000000E+00  0.00000000E+00  0.00000000E+00  0.00000000E+00
  0.00000000E+00  0.00000000E+00  0.00000000E+00  0.00000000E+00  0.00000000E+00
  0.00000000E+00  0.00000000E+00  0.00000000E+00  0.00000000E+00  0.00000000E+00
MO    3                     OCC NO =   1.00000000 ORB. ENERGY =  -7.31124908
  2.10269728E+00  1.56127295E+00  1.32281676E+00  1.26804080E+00  1.31594709E+00
  1.50694351E+00  1.78882618E+00  2.07088296E+00  2.17591173E+00  2.06919307E+00
  1.00342735E+00  2.83407244E-01  8.95176473E-01  1.97481244E+00  2.54789381E+00
  6.18137787E-01 -2.55380706E+00 -2.86016176E+00  4.58274274E-02  1.23445944E+00
  4.41400580E-01  1.35278717E-02 -2.57216239E-03  3.25022456E-04  0.00000000E+00
  0.00000000E+00  0.00000000E+00  0.00000000E+00  0.00000000E+00  0.00000000E+00
  0.00000000E+00  0.00000000E+00  0.00000000E+00  0.00000000E+00  0.00000000E+00
  0.00000000E+00  0.00000000E+00  0.00000000E+00  0.00000000E+00  0.00000000E+00
  0.00000000E+00  0.00000000E+00  0.00000000E+00  0.00000000E+00  0.00000000E+00
  0.00000000E+00  0.00000000E+00  0.00000000E+00  0.00000000E+00  0.00000000E+00
  0.00000000E+00  0.00000000E+00  0.00000000E+00  0.00000000E+00  0.00000000E+00
  0.00000000E+00  0.00000000E+00  0.00000000E+00  0.00000000E+00  0.00000000E+00
  0.00000000E+00  0.00000000E+00  0.00000000E+00  0.00000000E+00  0.00000000E+00
  0.00000000E+00  0.00000000E+00  0.00000000E+00  0.00000000E+00  0.00000000E+00
  0.00000000E+00  0.00000000E+00  0.00000000E+00  0.00000000E+00  0.00000000E+00
  0.00000000E+00  0.00000000E+00  0.00000000E+00  0.00000000E+00  0.00000000E+00
  0.00000000E+00  0.00000000E+00  0.00000000E+00  0.00000000E+00  0.00000000E+00
  0.00000000E+00  0.00000000E+00  0.00000000E+00  0.00000000E+00  0.00000000E+00
  0.00000000E+00  0.00000000E+00  0.00000000E+00  0.00000000E+00  0.00000000E+00
  0.00000000E+00  0.00000000E+00  0.00000000E+00  0.00000000E+00  0.00000000E+00
  0.00000000E+00  0.00000000E+00  0.00000000E+00  0.00000000E+00  0.00000000E+00
  0.00000000E+00  0.00000000E+00  0.00000000E+00  0.00000000E+00  0.00000000E+00
  0.00000000E+00  0.00000000E+00  0.00000000E+00  0.00000000E+00  0.00000000E+00
  0.00000000E+00  0.00000000E+00  0.00000000E+00  0.00000000E+00  0.00000000E+00
  0.00000000E+00  0.00000000E+00  0.00000000E+00  0.00000000E+00  0.00000000E+00
  0.00000000E+00  0.00000000E+00  0.00000000E+00  0.00000000E+00  0.00000000E+00
  0.00000000E+00  0.00000000E+00  0.00000000E+00  0.00000000E+00  0.00000000E+00
  0.00000000E+00  0.00000000E+00  0.00000000E+00  0.00000000E+00  0.00000000E+00
  0.00000000E+00  0.00000000E+00  0.00000000E+00  0.00000000E+00  0.00000000E+00
  0.00000000E+00  0.00000000E+00  0.00000000E+00  0.00000000E+00  0.00000000E+00
  0.00000000E+00  0.00000000E+00  0.00000000E+00  0.00000000E+00  0.00000000E+00
  0.00000000E+00  0.00000000E+00  0.00000000E+00  0.00000000E+00  0.00000000E+00
  0.00000000E+00  0.00000000E+00  0.00000000E+00  0.00000000E+00  0.00000000E+00
  0.00000000E+00  0.00000000E+00  0.00000000E+00  0.00000000E+00  0.00000000E+00
  0.00000000E+00  0.00000000E+00  0.00000000E+00  0.00000000E+00  0.00000000E+00
  0.00000000E+00  0.00000000E+00  0.00000000E+00  0.00000000E+00  0.00000000E+00
  0.00000000E+00  0.00000000E+00  0.00000000E+00  0.00000000E+00  0.00000000E+00
MO    4                     OCC NO =   1.00000000 ORB. ENERGY =  -0.63367197
 -6.12848867E-01 -4.55046177E-01 -3.85546108E-01 -3.69581192E-01 -3.83543885E-01
 -4.39211403E-01 -5.21368485E-01 -6.03576316E-01 -6.34187838E-01 -6.03083783E-01
 -2.92457370E-01 -8.37013530E-02 -2.64380970E-01 -5.83240114E-01 -7.52493678E-01
 -1.83465032E-01  7.89237093E-01  9.41803063E-01 -2.96915773E-02 -5.64519287E-01
 -3.35155292E-01  1.25231677E-01  1.47682598E-01  2.25900400E-02  0.00000000E+00
  0.00000000E+00  0.00000000E+00  0.00000000E+00  0.00000000E+00  0.00000000E+00
  0.00000000E+00  0.00000000E+00  0.00000000E+00  0.00000000E+00  0.00000000E+00
  0.00000000E+00  0.00000000E+00  0.00000000E+00  0.00000000E+00  0.00000000E+00
  0.00000000E+00  0.00000000E+00  0.00000000E+00  0.00000000E+00  0.00000000E+00
  0.00000000E+00  0.00000000E+00  0.00000000E+00  0.00000000E+00  0.00000000E+00
  0.00000000E+00  0.00000000E+00  0.00000000E+00  0.00000000E+00  0.00000000E+00
  0.00000000E+00  0.00000000E+00  0.00000000E+00  0.00000000E+00  0.00000000E+00
  0.00000000E+00  0.00000000E+00  0.00000000E+00  0.00000000E+00  0.00000000E+00
  0.00000000E+00  0.00000000E+00  0.00000000E+00  0.00000000E+00  0.00000000E+00
  0.00000000E+00  0.00000000E+00  0.00000000E+00  0.00000000E+00  0.00000000E+00
  0.00000000E+00  0.00000000E+00  0.00000000E+00  0.00000000E+00  0.00000000E+00
  0.00000000E+00  0.00000000E+00  0.00000000E+00  0.00000000E+00  0.00000000E+00
  0.00000000E+00  0.00000000E+00  0.00000000E+00  0.00000000E+00  0.00000000E+00
  0.00000000E+00  0.00000000E+00  0.00000000E+00  0.00000000E+00  0.00000000E+00
  0.00000000E+00  0.00000000E+00  0.00000000E+00  0.00000000E+00  0.00000000E+00
  0.00000000E+00  0.00000000E+00  0.00000000E+00  0.00000000E+00  0.00000000E+00
  0.00000000E+00  0.00000000E+00  0.00000000E+00  0.00000000E+00  0.00000000E+00
  0.00000000E+00  0.00000000E+00  0.00000000E+00  0.00000000E+00  0.00000000E+00
  0.00000000E+00  0.00000000E+00  0.00000000E+00  0.00000000E+00  0.00000000E+00
  0.00000000E+00  0.00000000E+00  0.00000000E+00  0.00000000E+00  0.00000000E+00
  0.00000000E+00  0.00000000E+00  0.00000000E+00  0.00000000E+00  0.00000000E+00
  0.00000000E+00  0.00000000E+00  0.00000000E+00  0.00000000E+00  0.00000000E+00
  0.00000000E+00  0.00000000E+00  0.00000000E+00  0.00000000E+00  0.00000000E+00
  0.00000000E+00  0.00000000E+00  0.00000000E+00  0.00000000E+00  0.00000000E+00
  0.00000000E+00  0.00000000E+00  0.00000000E+00  0.00000000E+00  0.00000000E+00
  0.00000000E+00  0.00000000E+00  0.00000000E+00  0.00000000E+00  0.00000000E+00
  0.00000000E+00  0.00000000E+00  0.00000000E+00  0.00000000E+00  0.00000000E+00
  0.00000000E+00  0.00000000E+00  0.00000000E+00  0.00000000E+00  0.00000000E+00
  0.00000000E+00  0.00000000E+00  0.00000000E+00  0.00000000E+00  0.00000000E+00
  0.00000000E+00  0.00000000E+00  0.00000000E+00  0.00000000E+00  0.00000000E+00
  0.00000000E+00  0.00000000E+00  0.00000000E+00  0.00000000E+00  0.00000000E+00
  0.00000000E+00  0.00000000E+00  0.00000000E+00  0.00000000E+00  0.00000000E+00
MO    5                     OCC NO =   1.00000000 ORB. ENERGY = -48.52335936
  0.00000000E+00  0.00000000E+00  0.00000000E+00  0.00000000E+00  0.00000000E+00
  0.00000000E+00  0.00000000E+00  0.00000000E+00  0.00000000E+00  0.00000000E+00
  0.00000000E+00  0.00000000E+00  0.00000000E+00  0.00000000E+00  0.00000000E+00
  0.00000000E+00  0.00000000E+00  0.00000000E+00  0.00000000E+00  0.00000000E+00
  0.00000000E+00  0.00000000E+00  0.00000000E+00  0.00000000E+00  9.64224965E+01
  0.00000000E+00  0.00000000E+00  5.67280029E+01  0.00000000E+00  0.00000000E+00
  5.92635095E+01  0.00000000E+00  0.00000000E+00  6.72588585E+01  0.00000000E+00
  0.00000000E+00  7.78614739E+01  0.00000000E+00  0.00000000E+00  8.87019154E+01
  0.00000000E+00  0.00000000E+00  9.06915776E+01  0.00000000E+00  0.00000000E+00
  7.35291597E+01  0.00000000E+00  0.00000000E+00  4.34110167E+01  0.00000000E+00
  0.00000000E+00  1.52012829E+01  0.00000000E+00  0.00000000E+00  2.31352908E+00
  0.00000000E+00  0.00000000E+00 -2.25792742E-01  0.00000000E+00  0.00000000E+00
 -5.34135982E-02  0.00000000E+00  0.00000000E+00 -1.06035330E-01  0.00000000E+00
  0.00000000E+00 -9.92101878E-02  0.00000000E+00  0.00000000E+00  1.40841496E-01
  0.00000000E+00  0.00000000E+00  1.32851548E-01  0.00000000E+00  0.00000000E+00
 -1.63661050E-02  0.00000000E+00  0.00000000E+00  4.33556438E-03  0.00000000E+00
  0.00000000E+00 -6.11188365E-04  0.00000000E+00  0.00000000E+00  9.15144899E-05
  0.00000000E+00  0.00000000E+00 -8.42831071E-06  0.00000000E+00  0.00000000E+00
  0.00000000E+00  0.00000000E+00  0.00000000E+00  0.00000000E+00  0.00000000E+00
  0.00000000E+00  0.00000000E+00  0.00000000E+00  0.00000000E+00  0.00000000E+00
  0.00000000E+00  0.00000000E+00  0.00000000E+00  0.00000000E+00  0.00000000E+00
  0.00000000E+00  0.00000000E+00  0.00000000E+00  0.00000000E+00  0.00000000E+00
  0.00000000E+00  0.00000000E+00  0.00000000E+00  0.00000000E+00  0.00000000E+00
  0.00000000E+00  0.00000000E+00  0.00000000E+00  0.00000000E+00  0.00000000E+00
  0.00000000E+00  0.00000000E+00  0.00000000E+00  0.00000000E+00  0.00000000E+00
  0.00000000E+00  0.00000000E+00  0.00000000E+00  0.00000000E+00  0.00000000E+00
  0.00000000E+00  0.00000000E+00  0.00000000E+00  0.00000000E+00  0.00000000E+00
  0.00000000E+00  0.00000000E+00  0.00000000E+00  0.00000000E+00  0.00000000E+00
  0.00000000E+00  0.00000000E+00  0.00000000E+00  0.00000000E+00  0.00000000E+00
  0.00000000E+00  0.00000000E+00  0.00000000E+00  0.00000000E+00  0.00000000E+00
  0.00000000E+00  0.00000000E+00  0.00000000E+00  0.00000000E+00  0.00000000E+00
  0.00000000E+00  0.00000000E+00  0.00000000E+00  0.00000000E+00  0.00000000E+00
  0.00000000E+00  0.00000000E+00  0.00000000E+00  0.00000000E+00  0.00000000E+00
  0.00000000E+00  0.00000000E+00  0.00000000E+00  0.00000000E+00  0.00000000E+00
  0.00000000E+00  0.00000000E+00  0.00000000E+00  0.00000000E+00  0.00000000E+00
  0.00000000E+00  0.00000000E+00  0.00000000E+00  0.00000000E+00  0.00000000E+00
  0.00000000E+00  0.00000000E+00  0.00000000E+00  0.00000000E+00  0.00000000E+00
MO    6                     OCC NO =   1.00000000 ORB. ENERGY = -48.52335936
  0.00000000E+00  0.00000000E+00  0.00000000E+00  0.00000000E+00  0.00000000E+00
  0.00000000E+00  0.00000000E+00  0.00000000E+00  0.00000000E+00  0.00000000E+00
  0.00000000E+00  0.00000000E+00  0.00000000E+00  0.00000000E+00  0.00000000E+00
  0.00000000E+00  0.00000000E+00  0.00000000E+00  0.00000000E+00  0.00000000E+00
  0.00000000E+00  0.00000000E+00  0.00000000E+00  0.00000000E+00  0.00000000E+00
  9.64224965E+01  0.00000000E+00  0.00000000E+00  5.67280029E+01  0.00000000E+00
  0.00000000E+00  5.92635095E+01  0.00000000E+00  0.00000000E+00  6.72588585E+01
  0.00000000E+00  0.00000000E+00  7.78614739E+01  0.00000000E+00  0.00000000E+00
  8.87019154E+01  0.00000000E+00  0.00000000E+00  9.06915776E+01  0.00000000E+00
  0.00000000E+00  7.35291597E+01  0.00000000E+00  0.00000000E+00  4.34110167E+01
  0.00000000E+00  0.00000000E+00  1.52012829E+01  0.00000000E+00  0.00000000E+00
  2.31352908E+00  0.00000000E+00  0.00000000E+00 -2.25792742E-01  0.00000000E+00
  0.00000000E+00 -5.34135982E-02  0.00000000E+00  0.00000000E+00 -1.06035330E-01
  0.00000000E+00  0.00000000E+00 -9.92101878E-02  0.00000000E+00  0.00000000E+00
  1.40841496E-01  0.00000000E+00  0.00000000E+00  1.32851548E-01  0.00000000E+00
  0.00000000E+00 -1.63661050E-02  0.00000000E+00  0.00000000E+00  4.33556438E-03
  0.00000000E+00  0.00000000E+00 -6.11188365E-04  0.00000000E+00  0.00000000E+00
  9.15144899E-05  0.00000000E+00  0.00000000E+00 -8.42831071E-06  0.00000000E+00
  0.00000000E+00  0.00000000E+00  0.00000000E+00  0.00000000E+00  0.00000000E+00
  0.00000000E+00  0.00000000E+00  0.00000000E+00  0.00000000E+00  0.00000000E+00
  0.00000000E+00  0.00000000E+00  0.00000000E+00  0.00000000E+00  0.00000000E+00
  0.00000000E+00  0.00000000E+00  0.00000000E+00  0.00000000E+00  0.00000000E+00
  0.00000000E+00  0.00000000E+00  0.00000000E+00  0.00000000E+00  0.00000000E+00
  0.00000000E+00  0.00000000E+00  0.00000000E+00  0.00000000E+00  0.00000000E+00
  0.00000000E+00  0.00000000E+00  0.00000000E+00  0.00000000E+00  0.00000000E+00
  0.00000000E+00  0.00000000E+00  0.00000000E+00  0.00000000E+00  0.00000000E+00
  0.00000000E+00  0.00000000E+00  0.00000000E+00  0.00000000E+00  0.00000000E+00
  0.00000000E+00  0.00000000E+00  0.00000000E+00  0.00000000E+00  0.00000000E+00
  0.00000000E+00  0.00000000E+00  0.00000000E+00  0.00000000E+00  0.00000000E+00
  0.00000000E+00  0.00000000E+00  0.00000000E+00  0.00000000E+00  0.00000000E+00
  0.00000000E+00  0.00000000E+00  0.00000000E+00  0.00000000E+00  0.00000000E+00
  0.00000000E+00  0.00000000E+00  0.00000000E+00  0.00000000E+00  0.00000000E+00
  0.00000000E+00  0.00000000E+00  0.00000000E+00  0.00000000E+00  0.00000000E+00
  0.00000000E+00  0.00000000E+00  0.00000000E+00  0.00000000E+00  0.00000000E+00
  0.00000000E+00  0.00000000E+00  0.00000000E+00  0.00000000E+00  0.00000000E+00
  0.00000000E+00  0.00000000E+00  0.00000000E+00  0.00000000E+00  0.00000000E+00
  0.00000000E+00  0.00000000E+00  0.00000000E+00  0.00000000E+00  0.00000000E+00
MO    7                     OCC NO =   1.00000000 ORB. ENERGY = -48.52335936
  0.00000000E+00  0.00000000E+00  0.00000000E+00  0.00000000E+00  0.00000000E+00
  0.00000000E+00  0.00000000E+00  0.00000000E+00  0.00000000E+00  0.00000000E+00
  0.00000000E+00  0.00000000E+00  0.00000000E+00  0.00000000E+00  0.00000000E+00
  0.00000000E+00  0.00000000E+00  0.00000000E+00  0.00000000E+00  0.00000000E+00
  0.00000000E+00  0.00000000E+00  0.00000000E+00  0.00000000E+00  0.00000000E+00
  0.00000000E+00  9.64224965E+01  0.00000000E+00  0.00000000E+00  5.67280029E+01
  0.00000000E+00  0.00000000E+00  5.92635095E+01  0.00000000E+00  0.00000000E+00
  6.72588585E+01  0.00000000E+00  0.00000000E+00  7.78614739E+01  0.00000000E+00
  0.00000000E+00  8.87019154E+01  0.00000000E+00  0.00000000E+00  9.06915776E+01
  0.00000000E+00  0.00000000E+00  7.35291597E+01  0.00000000E+00  0.00000000E+00
  4.34110167E+01  0.00000000E+00  0.00000000E+00  1.52012829E+01  0.00000000E+00
  0.00000000E+00  2.31352908E+00  0.00000000E+00  0.00000000E+00 -2.25792742E-01
  0.00000000E+00  0.00000000E+00 -5.34135982E-02  0.00000000E+00  0.00000000E+00
 -1.06035330E-01  0.00000000E+00  0.00000000E+00 -9.92101878E-02  0.00000000E+00
  0.00000000E+00  1.40841496E-01  0.00000000E+00  0.00000000E+00  1.32851548E-01
  0.00000000E+00  0.00000000E+00 -1.63661050E-02  0.00000000E+00  0.00000000E+00
  4.33556438E-03  0.00000000E+00  0.00000000E+00 -6.11188365E-04  0.00000000E+00
  0.00000000E+00  9.15144899E-05  0.00000000E+00  0.00000000E+00 -8.42831071E-06
  0.00000000E+00  0.00000000E+00  0.00000000E+00  0.00000000E+00  0.00000000E+00
  0.00000000E+00  0.00000000E+00  0.00000000E+00  0.00000000E+00  0.00000000E+00
  0.00000000E+00  0.00000000E+00  0.00000000E+00  0.00000000E+00  0.00000000E+00
  0.00000000E+00  0.00000000E+00  0.00000000E+00  0.00000000E+00  0.00000000E+00
  0.00000000E+00  0.00000000E+00  0.00000000E+00  0.00000000E+00  0.00000000E+00
  0.00000000E+00  0.00000000E+00  0.00000000E+00  0.00000000E+00  0.00000000E+00
  0.00000000E+00  0.00000000E+00  0.00000000E+00  0.00000000E+00  0.00000000E+00
  0.00000000E+00  0.00000000E+00  0.00000000E+00  0.00000000E+00  0.00000000E+00
  0.00000000E+00  0.00000000E+00  0.00000000E+00  0.00000000E+00  0.00000000E+00
  0.00000000E+00  0.00000000E+00  0.00000000E+00  0.00000000E+00  0.00000000E+00
  0.00000000E+00  0.00000000E+00  0.00000000E+00  0.00000000E+00  0.00000000E+00
  0.00000000E+00  0.00000000E+00  0.00000000E+00  0.00000000E+00  0.00000000E+00
  0.00000000E+00  0.00000000E+00  0.00000000E+00  0.00000000E+00  0.00000000E+00
  0.00000000E+00  0.00000000E+00  0.00000000E+00  0.00000000E+00  0.00000000E+00
  0.00000000E+00  0.00000000E+00  0.00000000E+00  0.00000000E+00  0.00000000E+00
  0.00000000E+00  0.00000000E+00  0.00000000E+00  0.00000000E+00  0.00000000E+00
  0.00000000E+00  0.00000000E+00  0.00000000E+00  0.00000000E+00  0.00000000E+00
  0.00000000E+00  0.00000000E+00  0.00000000E+00  0.00000000E+00  0.00000000E+00
  0.00000000E+00  0.00000000E+00  0.00000000E+00  0.00000000E+00  0.00000000E+00
MO    8                     OCC NO =   1.00000000 ORB. ENERGY =  -5.16755974
  0.00000000E+00  0.00000000E+00  0.00000000E+00  0.00000000E+00  0.00000000E+00
  0.00000000E+00  0.00000000E+00  0.00000000E+00  0.00000000E+00  0.00000000E+00
  0.00000000E+00  0.00000000E+00  0.00000000E+00  0.00000000E+00  0.00000000E+00
  0.00000000E+00  0.00000000E+00  0.00000000E+00  0.00000000E+00  0.00000000E+00
  0.00000000E+00  0.00000000E+00  0.00000000E+00  0.00000000E+00 -3.86166824E+01
  0.00000000E+00  0.00000000E+00 -2.27192548E+01  0.00000000E+00  0.00000000E+00
 -2.37347113E+01  0.00000000E+00  0.00000000E+00 -2.69368049E+01  0.00000000E+00
  0.00000000E+00 -3.11830943E+01  0.00000000E+00  0.00000000E+00 -3.55246318E+01
  0.00000000E+00  0.00000000E+00 -3.63214807E+01  0.00000000E+00  0.00000000E+00
 -2.94480262E+01  0.00000000E+00  0.00000000E+00 -1.73858747E+01  0.00000000E+00
  0.00000000E+00 -6.08803063E+00  0.00000000E+00  0.00000000E+00 -9.26555740E-01
  0.00000000E+00  0.00000000E+00  3.40159111E-01  0.00000000E+00  0.00000000E+00
 -1.58743769E+00  0.00000000E+00  0.00000000E+00 -3.15134133E+00  0.00000000E+00
  0.00000000E+00 -2.94849994E+00  0.00000000E+00  0.00000000E+00  4.18577118E+00
  0.00000000E+00  0.00000000E+00  3.94831206E+00  0.00000000E+00  0.00000000E+00
  1.59930968E+00  0.00000000E+00  0.00000000E+00  2.78807200E-01  0.00000000E+00
  0.00000000E+00  6.55306141E-03  0.00000000E+00  0.00000000E+00 -9.91527340E-05
  0.00000000E+00  0.00000000E+00  6.28846411E-06  0.00000000E+00  0.00000000E+00
  0.00000000E+00  0.00000000E+00  0.00000000E+00  0.00000000E+00  0.00000000E+00
  0.00000000E+00  0.00000000E+00  0.00000000E+00  0.00000000E+00  0.00000000E+00
  0.00000000E+00  0.00000000E+00  0.00000000E+00  0.00000000E+00  0.00000000E+00
  0.00000000E+00  0.00000000E+00  0.00000000E+00  0.00000000E+00  0.00000000E+00
  0.00000000E+00  0.00000000E+00  0.00000000E+00  0.00000000E+00  0.00000000E+00
  0.00000000E+00  0.00000000E+00  0.00000000E+00  0.00000000E+00  0.00000000E+00
  0.00000000E+00  0.00000000E+00  0.00000000E+00  0.00000000E+00  0.00000000E+00
  0.00000000E+00  0.00000000E+00  0.00000000E+00  0.00000000E+00  0.00000000E+00
  0.00000000E+00  0.00000000E+00  0.00000000E+00  0.00000000E+00  0.00000000E+00
  0.00000000E+00  0.00000000E+00  0.00000000E+00  0.00000000E+00  0.00000000E+00
  0.00000000E+00  0.00000000E+00  0.00000000E+00  0.00000000E+00  0.00000000E+00
  0.00000000E+00  0.00000000E+00  0.00000000E+00  0.00000000E+00  0.00000000E+00
  0.00000000E+00  0.00000000E+00  0.00000000E+00  0.00000000E+00  0.00000000E+00
  0.00000000E+00  0.00000000E+00  0.00000000E+00  0.00000000E+00  0.00000000E+00
  0.00000000E+00  0.00000000E+00  0.00000000E+00  0.00000000E+00  0.00000000E+00
  0.00000000E+00  0.00000000E+00  0.00000000E+00  0.00000000E+00  0.00000000E+00
  0.00000000E+00  0.00000000E+00  0.00000000E+00  0.00000000E+00  0.00000000E+00
  0.00000000E+00  0.00000000E+00  0.00000000E+00  0.00000000E+00  0.00000000E+00
  0.00000000E+00  0.00000000E+00  0.00000000E+00  0.00000000E+00  0.00000000E+00
MO    9                     OCC NO =   1.00000000 ORB. ENERGY =  -5.16755974
  0.00000000E+00  0.00000000E+00  0.00000000E+00  0.00000000E+00  0.00000000E+00
  0.00000000E+00  0.00000000E+00  0.00000000E+00  0.00000000E+00  0.00000000E+00
  0.00000000E+00  0.00000000E+00  0.00000000E+00  0.00000000E+00  0.00000000E+00
  0.00000000E+00  0.00000000E+00  0.00000000E+00  0.00000000E+00  0.00000000E+00
  0.00000000E+00  0.00000000E+00  0.00000000E+00  0.00000000E+00  0.00000000E+00
 -3.86166824E+01  0.00000000E+00  0.00000000E+00 -2.27192548E+01  0.00000000E+00
  0.00000000E+00 -2.37347113E+01  0.00000000E+00  0.00000000E+00 -2.69368049E+01