atomref-proatoms At_q0_mult2_nist x2c-QZVPall
GAUSSIAN             86 MOL ORBITALS    387 PRIMITIVES        1 NUCLEI
  At   1    (CENTRE  1)   0.00000000  0.00000000  0.00000000  CHARGE = 85.0
CENTRE ASSIGNMENTS    1  1  1  1  1  1  1  1  1  1  1  1  1  1  1  1  1  1  1  1
CENTRE ASSIGNMENTS    1  1  1  1  1  1  1  1  1  1  1  1  1  1  1  1  1  1  1  1
CENTRE ASSIGNMENTS    1  1  1  1  1  1  1  1  1  1  1  1  1  1  1  1  1  1  1  1
CENTRE ASSIGNMENTS    1  1  1  1  1  1  1  1  1  1  1  1  1  1  1  1  1  1  1  1
CENTRE ASSIGNMENTS    1  1  1  1  1  1  1  1  1  1  1  1  1  1  1  1  1  1  1  1
CENTRE ASSIGNMENTS    1  1  1  1  1  1  1  1  1  1  1  1  1  1  1  1  1  1  1  1
CENTRE ASSIGNMENTS    1  1  1  1  1  1  1  1  1  1  1  1  1  1  1  1  1  1  1  1
CENTRE ASSIGNMENTS    1  1  1  1  1  1  1  1  1  1  1  1  1  1  1  1  1  1  1  1
CENTRE ASSIGNMENTS    1  1  1  1  1  1  1  1  1  1  1  1  1  1  1  1  1  1  1  1
CENTRE ASSIGNMENTS    1  1  1  1  1  1  1  1  1  1  1  1  1  1  1  1  1  1  1  1
CENTRE ASSIGNMENTS    1  1  1  1  1  1  1  1  1  1  1  1  1  1  1  1  1  1  1  1
CENTRE ASSIGNMENTS    1  1  1  1  1  1  1  1  1  1  1  1  1  1  1  1  1  1  1  1
CENTRE ASSIGNMENTS    1  1  1  1  1  1  1  1  1  1  1  1  1  1  1  1  1  1  1  1
CENTRE ASSIGNMENTS    1  1  1  1  1  1  1  1  1  1  1  1  1  1  1  1  1  1  1  1
CENTRE ASSIGNMENTS    1  1  1  1  1  1  1  1  1  1  1  1  1  1  1  1  1  1  1  1
CENTRE ASSIGNMENTS    1  1  1  1  1  1  1  1  1  1  1  1  1  1  1  1  1  1  1  1
CENTRE ASSIGNMENTS    1  1  1  1  1  1  1  1  1  1  1  1  1  1  1  1  1  1  1  1
CENTRE ASSIGNMENTS    1  1  1  1  1  1  1  1  1  1  1  1  1  1  1  1  1  1  1  1
CENTRE ASSIGNMENTS    1  1  1  1  1  1  1  1  1  1  1  1  1  1  1  1  1  1  1  1
CENTRE ASSIGNMENTS    1  1  1  1  1  1  1
TYPE ASSIGNMENTS      1  1  1  1  1  1  1  1  1  1  1  1  1  1  1  1  1  1  1  1
TYPE ASSIGNMENTS      1  1  1  1  1  1  1  1  1  1  2  3  4  2  3  4  2  3  4  2
TYPE ASSIGNMENTS      3  4  2  3  4  2  3  4  2  3  4  2  3  4  2  3  4  2  3  4
TYPE ASSIGNMENTS      2  3  4  2  3  4  2  3  4  2  3  4  2  3  4  2  3  4  2  3
TYPE ASSIGNMENTS      4  2  3  4  2  3  4  2  3  4  2  3  4  2  3  4  2  3  4  2
TYPE ASSIGNMENTS      3  4  2  3  4  2  3  4  2  3  4  2  3  4  2  3  4  2  3  4
TYPE ASSIGNMENTS      2  3  4  2  3  4  2  3  4  2  3  4  5  8  9  6 10  7  5  8
TYPE ASSIGNMENTS      9  6 10  7  5  8  9  6 10  7  5  8  9  6 10  7  5  8  9  6
TYPE ASSIGNMENTS     10  7  5  8  9  6 10  7  5  8  9  6 10  7  5  8  9  6 10  7
TYPE ASSIGNMENTS      5  8  9  6 10  7  5  8  9  6 10  7  5  8  9  6 10  7  5  8
TYPE ASSIGNMENTS      9  6 10  7  5  8  9  6 10  7  5  8  9  6 10  7  5  8  9  6
TYPE ASSIGNMENTS     10  7  5  8  9  6 10  7  5  8  9  6 10  7  5  8  9  6 10  7
TYPE ASSIGNMENTS      5  8  9  6 10  7  5  8  9  6 10  7 11 14 15 17 20 18 12 16
TYPE ASSIGNMENTS     19 13 11 14 15 17 20 18 12 16 19 13 11 14 15 17 20 18 12 16
TYPE ASSIGNMENTS     19 13 11 14 15 17 20 18 12 16 19 13 11 14 15 17 20 18 12 16
TYPE ASSIGNMENTS     19 13 11 14 15 17 20 18 12 16 19 13 11 14 15 17 20 18 12 16
TYPE ASSIGNMENTS     19 13 11 14 15 17 20 18 12 16 19 13 11 14 15 17 20 18 12 16
TYPE ASSIGNMENTS     19 13 11 14 15 17 20 18 12 16 19 13 11 14 15 17 20 18 12 16
TYPE ASSIGNMENTS     19 13 11 14 15 17 20 18 12 16 19 13 21 24 25 30 33 31 26 34
TYPE ASSIGNMENTS     35 28 22 27 32 29 23
EXPONENTS  6.4145820E+07 1.7417823E+07 5.3559854E+06 1.7033738E+06 5.7847310E+05
EXPONENTS  2.0701051E+05 7.8142126E+04 3.1426627E+04 1.3427282E+04 6.1286177E+03
EXPONENTS  2.9663314E+03 1.4681073E+03 7.6817931E+04 1.6780177E+04 4.9230279E+03
EXPONENTS  1.7591735E+03 7.2752210E+02 3.3910903E+02 1.6514426E+02 7.8657404E+01
EXPONENTS  4.2004541E+01 2.1527946E+01 1.0131687E+01 5.0314134E+00 2.3661131E+00
EXPONENTS  1.0765899E+00 5.4657621E-01 2.6156304E-01 1.3596073E-01 6.3567195E-02
EXPONENTS  3.6600000E+02 3.6600000E+02 3.6600000E+02 1.7026613E+07 1.7026613E+07
EXPONENTS  1.7026613E+07 3.2015941E+06 3.2015941E+06 3.2015941E+06 7.7437648E+05
EXPONENTS  7.7437648E+05 7.7437648E+05 2.1979429E+05 2.1979429E+05 2.1979429E+05
EXPONENTS  7.0725687E+04 7.0725687E+04 7.0725687E+04 2.5037027E+04 2.5037027E+04
EXPONENTS  2.5037027E+04 9.4350420E+03 9.4350420E+03 9.4350420E+03 3.7710443E+03
EXPONENTS  3.7710443E+03 3.7710443E+03 1.5754697E+03 1.5754697E+03 1.5754697E+03
EXPONENTS  6.9706712E+02 6.9706712E+02 6.9706712E+02 3.2802679E+02 3.2802679E+02
EXPONENTS  3.2802679E+02 1.6266919E+02 1.6266919E+02 1.6266919E+02 8.3649960E+01
EXPONENTS  8.3649960E+01 8.3649960E+01 2.5464466E+03 2.5464466E+03 2.5464466E+03
EXPONENTS  8.7337870E+02 8.7337870E+02 8.7337870E+02 3.8862589E+02 3.8862589E+02
EXPONENTS  3.8862589E+02 9.6980610E+01 9.6980610E+01 9.6980610E+01 5.0428550E+01
EXPONENTS  5.0428550E+01 5.0428550E+01 2.5897881E+01 2.5897881E+01 2.5897881E+01
EXPONENTS  1.1321137E+01 1.1321137E+01 1.1321137E+01 1.3060068E+02 1.3060068E+02
EXPONENTS  1.3060068E+02 5.4163926E+01 5.4163926E+01 5.4163926E+01 1.5561998E+01
EXPONENTS  1.5561998E+01 1.5561998E+01 8.5132712E+00 8.5132712E+00 8.5132712E+00
EXPONENTS  4.4194571E+00 4.4194571E+00 4.4194571E+00 8.9102700E+00 8.9102700E+00
EXPONENTS  8.9102700E+00 2.7520261E+00 2.7520261E+00 2.7520261E+00 1.3747092E+00
EXPONENTS  1.3747092E+00 1.3747092E+00 1.5972937E+00 1.5972937E+00 1.5972937E+00
EXPONENTS  5.4546541E-01 5.4546541E-01 5.4546541E-01 2.5428865E-01 2.5428865E-01
EXPONENTS  2.5428865E-01 1.0326031E-01 1.0326031E-01 1.0326031E-01 3.8485341E-02
EXPONENTS  3.8485341E-02 3.8485341E-02 8.4179412E+03 8.4179412E+03 8.4179412E+03
EXPONENTS  8.4179412E+03 8.4179412E+03 8.4179412E+03 2.4425553E+03 2.4425553E+03
EXPONENTS  2.4425553E+03 2.4425553E+03 2.4425553E+03 2.4425553E+03 9.6204189E+02
EXPONENTS  9.6204189E+02 9.6204189E+02 9.6204189E+02 9.6204189E+02 9.6204189E+02
EXPONENTS  4.2780053E+02 4.2780053E+02 4.2780053E+02 4.2780053E+02 4.2780053E+02
EXPONENTS  4.2780053E+02 2.0735804E+02 2.0735804E+02 2.0735804E+02 2.0735804E+02
EXPONENTS  2.0735804E+02 2.0735804E+02 1.0494758E+02 1.0494758E+02 1.0494758E+02
EXPONENTS  1.0494758E+02 1.0494758E+02 1.0494758E+02 5.4325245E+01 5.4325245E+01
EXPONENTS  5.4325245E+01 5.4325245E+01 5.4325245E+01 5.4325245E+01 2.8564734E+01
EXPONENTS  2.8564734E+01 2.8564734E+01 2.8564734E+01 2.8564734E+01 2.8564734E+01
EXPONENTS  5.7600000E+01 5.7600000E+01 5.7600000E+01 5.7600000E+01 5.7600000E+01
EXPONENTS  5.7600000E+01 4.3265855E+02 4.3265855E+02 4.3265855E+02 4.3265855E+02
EXPONENTS  4.3265855E+02 4.3265855E+02 1.6463731E+02 1.6463731E+02 1.6463731E+02
EXPONENTS  1.6463731E+02 1.6463731E+02 1.6463731E+02 3.4781108E+01 3.4781108E+01
EXPONENTS  3.4781108E+01 3.4781108E+01 3.4781108E+01 3.4781108E+01 1.5305592E+01
EXPONENTS  1.5305592E+01 1.5305592E+01 1.5305592E+01 1.5305592E+01 1.5305592E+01
EXPONENTS  2.1652312E+01 2.1652312E+01 2.1652312E+01 2.1652312E+01 2.1652312E+01
EXPONENTS  2.1652312E+01 8.2305188E+00 8.2305188E+00 8.2305188E+00 8.2305188E+00
EXPONENTS  8.2305188E+00 8.2305188E+00 4.1860682E+00 4.1860682E+00 4.1860682E+00
EXPONENTS  4.1860682E+00 4.1860682E+00 4.1860682E+00 2.0948068E+00 2.0948068E+00
EXPONENTS  2.0948068E+00 2.0948068E+00 2.0948068E+00 2.0948068E+00 9.9755997E-01
EXPONENTS  9.9755997E-01 9.9755997E-01 9.9755997E-01 9.9755997E-01 9.9755997E-01
EXPONENTS  4.4101974E-01 4.4101974E-01 4.4101974E-01 4.4101974E-01 4.4101974E-01
EXPONENTS  4.4101974E-01 1.4863409E-01 1.4863409E-01 1.4863409E-01 1.4863409E-01
EXPONENTS  1.4863409E-01 1.4863409E-01 6.7942976E+02 6.7942976E+02 6.7942976E+02
EXPONENTS  6.7942976E+02 6.7942976E+02 6.7942976E+02 6.7942976E+02 6.7942976E+02
EXPONENTS  6.7942976E+02 6.7942976E+02 2.3270816E+02 2.3270816E+02 2.3270816E+02
EXPONENTS  2.3270816E+02 2.3270816E+02 2.3270816E+02 2.3270816E+02 2.3270816E+02
EXPONENTS  2.3270816E+02 2.3270816E+02 9.9745962E+01 9.9745962E+01 9.9745962E+01
EXPONENTS  9.9745962E+01 9.9745962E+01 9.9745962E+01 9.9745962E+01 9.9745962E+01
EXPONENTS  9.9745962E+01 9.9745962E+01 4.7076877E+01 4.7076877E+01 4.7076877E+01
EXPONENTS  4.7076877E+01 4.7076877E+01 4.7076877E+01 4.7076877E+01 4.7076877E+01
EXPONENTS  4.7076877E+01 4.7076877E+01 2.3238056E+01 2.3238056E+01 2.3238056E+01
EXPONENTS  2.3238056E+01 2.3238056E+01 2.3238056E+01 2.3238056E+01 2.3238056E+01
EXPONENTS  2.3238056E+01 2.3238056E+01 1.1505263E+01 1.1505263E+01 1.1505263E+01
EXPONENTS  1.1505263E+01 1.1505263E+01 1.1505263E+01 1.1505263E+01 1.1505263E+01
EXPONENTS  1.1505263E+01 1.1505263E+01 5.7744921E+00 5.7744921E+00 5.7744921E+00
EXPONENTS  5.7744921E+00 5.7744921E+00 5.7744921E+00 5.7744921E+00 5.7744921E+00
EXPONENTS  5.7744921E+00 5.7744921E+00 1.1800000E+01 1.1800000E+01 1.1800000E+01
EXPONENTS  1.1800000E+01 1.1800000E+01 1.1800000E+01 1.1800000E+01 1.1800000E+01
EXPONENTS  1.1800000E+01 1.1800000E+01 2.9767862E+00 2.9767862E+00 2.9767862E+00
EXPONENTS  2.9767862E+00 2.9767862E+00 2.9767862E+00 2.9767862E+00 2.9767862E+00
EXPONENTS  2.9767862E+00 2.9767862E+00 1.5105220E+00 1.5105220E+00 1.5105220E+00
EXPONENTS  1.5105220E+00 1.5105220E+00 1.5105220E+00 1.5105220E+00 1.5105220E+00
EXPONENTS  1.5105220E+00 1.5105220E+00 5.3890000E-01 5.3890000E-01 5.3890000E-01
EXPONENTS  5.3890000E-01 5.3890000E-01 5.3890000E-01 5.3890000E-01 5.3890000E-01
EXPONENTS  5.3890000E-01 5.3890000E-01 2.2870000E-01 2.2870000E-01 2.2870000E-01
EXPONENTS  2.2870000E-01 2.2870000E-01 2.2870000E-01 2.2870000E-01 2.2870000E-01
EXPONENTS  2.2870000E-01 2.2870000E-01 4.3630000E-01 4.3630000E-01 4.3630000E-01
EXPONENTS  4.3630000E-01 4.3630000E-01 4.3630000E-01 4.3630000E-01 4.3630000E-01
EXPONENTS  4.3630000E-01 4.3630000E-01 4.3630000E-01 4.3630000E-01 4.3630000E-01
EXPONENTS  4.3630000E-01 4.3630000E-01
MO    1                     OCC NO =   1.00000000 ORB. ENERGY = -3518.57062319
  3.60334242E+02  3.36676434E+02  2.84853548E+02  2.34773213E+02  1.94635081E+02
  1.67429063E+02  1.46704796E+02  1.31424099E+02  1.17331200E+02  9.86970926E+01
  7.58458324E+01  4.63600045E+01 -2.35318031E-01 -4.89128428E-01 -8.23722096E-01
 -8.99228773E-01  1.70016542E+01  1.22124144E+00  2.14054246E-01 -1.30238918E-01
  7.17717529E-02 -2.84218221E-02  1.01058306E-02 -3.93694511E-03  1.36359927E-03
 -5.26939207E-04  2.23035951E-04 -7.47181537E-05  2.14318606E-05 -2.70705758E-06
  0.00000000E+00  0.00000000E+00  0.00000000E+00  0.00000000E+00  0.00000000E+00
  0.00000000E+00  0.00000000E+00  0.00000000E+00  0.00000000E+00  0.00000000E+00
  0.00000000E+00  0.00000000E+00  0.00000000E+00  0.00000000E+00  0.00000000E+00
  0.00000000E+00  0.00000000E+00  0.00000000E+00  0.00000000E+00  0.00000000E+00
  0.00000000E+00  0.00000000E+00  0.00000000E+00  0.00000000E+00  0.00000000E+00
  0.00000000E+00  0.00000000E+00  0.00000000E+00  0.00000000E+00  0.00000000E+00
  0.00000000E+00  0.00000000E+00  0.00000000E+00  0.00000000E+00  0.00000000E+00
  0.00000000E+00  0.00000000E+00  0.00000000E+00  0.00000000E+00  0.00000000E+00
  0.00000000E+00  0.00000000E+00  0.00000000E+00  0.00000000E+00  0.00000000E+00
  0.00000000E+00  0.00000000E+00  0.00000000E+00  0.00000000E+00  0.00000000E+00
  0.00000000E+00  0.00000000E+00  0.00000000E+00  0.00000000E+00  0.00000000E+00
  0.00000000E+00  0.00000000E+00  0.00000000E+00  0.00000000E+00  0.00000000E+00
  0.00000000E+00  0.00000000E+00  0.00000000E+00  0.00000000E+00  0.00000000E+00
  0.00000000E+00  0.00000000E+00  0.00000000E+00  0.00000000E+00  0.00000000E+00
  0.00000000E+00  0.00000000E+00  0.00000000E+00  0.00000000E+00  0.00000000E+00
  0.00000000E+00  0.00000000E+00  0.00000000E+00  0.00000000E+00  0.00000000E+00
  0.00000000E+00  0.00000000E+00  0.00000000E+00  0.00000000E+00  0.00000000E+00
  0.00000000E+00  0.00000000E+00  0.00000000E+00  0.00000000E+00  0.00000000E+00
  0.00000000E+00  0.00000000E+00  0.00000000E+00  0.00000000E+00  0.00000000E+00
  0.00000000E+00  0.00000000E+00  0.00000000E+00  0.00000000E+00  0.00000000E+00
  0.00000000E+00  0.00000000E+00  0.00000000E+00  0.00000000E+00  0.00000000E+00
  0.00000000E+00  0.00000000E+00  0.00000000E+00  0.00000000E+00  0.00000000E+00
  0.00000000E+00  0.00000000E+00  0.00000000E+00  0.00000000E+00  0.00000000E+00
  0.00000000E+00  0.00000000E+00  0.00000000E+00  0.00000000E+00  0.00000000E+00
  0.00000000E+00  0.00000000E+00  0.00000000E+00  0.00000000E+00  0.00000000E+00
  0.00000000E+00  0.00000000E+00  0.00000000E+00  0.00000000E+00  0.00000000E+00
  0.00000000E+00  0.00000000E+00  0.00000000E+00  0.00000000E+00  0.00000000E+00
  0.00000000E+00  0.00000000E+00  0.00000000E+00  0.00000000E+00  0.00000000E+00
  0.00000000E+00  0.00000000E+00  0.00000000E+00  0.00000000E+00  0.00000000E+00
  0.00000000E+00  0.00000000E+00  0.00000000E+00  0.00000000E+00  0.00000000E+00
  0.00000000E+00  0.00000000E+00  0.00000000E+00  0.00000000E+00  0.00000000E+00
  0.00000000E+00  0.00000000E+00  0.00000000E+00  0.00000000E+00  0.00000000E+00
  0.00000000E+00  0.00000000E+00  0.00000000E+00  0.00000000E+00  0.00000000E+00
  0.00000000E+00  0.00000000E+00  0.00000000E+00  0.00000000E+00  0.00000000E+00
  0.00000000E+00  0.00000000E+00  0.00000000E+00  0.00000000E+00  0.00000000E+00
  0.00000000E+00  0.00000000E+00  0.00000000E+00  0.00000000E+00  0.00000000E+00
  0.00000000E+00  0.00000000E+00  0.00000000E+00  0.00000000E+00  0.00000000E+00
  0.00000000E+00  0.00000000E+00  0.00000000E+00  0.00000000E+00  0.00000000E+00
  0.00000000E+00  0.00000000E+00  0.00000000E+00  0.00000000E+00  0.00000000E+00
  0.00000000E+00  0.00000000E+00  0.00000000E+00  0.00000000E+00  0.00000000E+00
  0.00000000E+00  0.00000000E+00  0.00000000E+00  0.00000000E+00  0.00000000E+00
  0.00000000E+00  0.00000000E+00  0.00000000E+00  0.00000000E+00  0.00000000E+00
  0.00000000E+00  0.00000000E+00  0.00000000E+00  0.00000000E+00  0.00000000E+00
  0.00000000E+00  0.00000000E+00  0.00000000E+00  0.00000000E+00  0.00000000E+00
  0.00000000E+00  0.00000000E+00  0.00000000E+00  0.00000000E+00  0.00000000E+00
  0.00000000E+00  0.00000000E+00  0.00000000E+00  0.00000000E+00  0.00000000E+00
  0.00000000E+00  0.00000000E+00  0.00000000E+00  0.00000000E+00  0.00000000E+00
  0.00000000E+00  0.00000000E+00  0.00000000E+00  0.00000000E+00  0.00000000E+00
  0.00000000E+00  0.00000000E+00  0.00000000E+00  0.00000000E+00  0.00000000E+00
  0.00000000E+00  0.00000000E+00  0.00000000E+00  0.00000000E+00  0.00000000E+00
  0.00000000E+00  0.00000000E+00  0.00000000E+00  0.00000000E+00  0.00000000E+00
  0.00000000E+00  0.00000000E+00  0.00000000E+00  0.00000000E+00  0.00000000E+00
  0.00000000E+00  0.00000000E+00  0.00000000E+00  0.00000000E+00  0.00000000E+00
  0.00000000E+00  0.00000000E+00  0.00000000E+00  0.00000000E+00  0.00000000E+00
  0.00000000E+00  0.00000000E+00  0.00000000E+00  0.00000000E+00  0.00000000E+00
  0.00000000E+00  0.00000000E+00  0.00000000E+00  0.00000000E+00  0.00000000E+00
  0.00000000E+00  0.00000000E+00  0.00000000E+00  0.00000000E+00  0.00000000E+00
  0.00000000E+00  0.00000000E+00  0.00000000E+00  0.00000000E+00  0.00000000E+00
  0.00000000E+00  0.00000000E+00  0.00000000E+00  0.00000000E+00  0.00000000E+00
  0.00000000E+00  0.00000000E+00  0.00000000E+00  0.00000000E+00  0.00000000E+00
  0.00000000E+00  0.00000000E+00  0.00000000E+00  0.00000000E+00  0.00000000E+00
  0.00000000E+00  0.00000000E+00  0.00000000E+00  0.00000000E+00  0.00000000E+00
  0.00000000E+00  0.00000000E+00  0.00000000E+00  0.00000000E+00  0.00000000E+00
  0.00000000E+00  0.00000000E+00  0.00000000E+00  0.00000000E+00  0.00000000E+00
  0.00000000E+00  0.00000000E+00  0.00000000E+00  0.00000000E+00  0.00000000E+00
  0.00000000E+00  0.00000000E+00  0.00000000E+00  0.00000000E+00  0.00000000E+00
  0.00000000E+00  0.00000000E+00  0.00000000E+00  0.00000000E+00  0.00000000E+00
  0.00000000E+00  0.00000000E+00  0.00000000E+00  0.00000000E+00  0.00000000E+00
  0.00000000E+00  0.00000000E+00  0.00000000E+00  0.00000000E+00  0.00000000E+00
  0.00000000E+00  0.00000000E+00  0.00000000E+00  0.00000000E+00  0.00000000E+00
  0.00000000E+00  0.00000000E+00  0.00000000E+00  0.00000000E+00  0.00000000E+00
  0.00000000E+00  0.00000000E+00
MO    2                     OCC NO =   1.00000000 ORB. ENERGY = -639.22587335
 -1.47371593E+02 -1.37695885E+02 -1.16501060E+02 -9.60189130E+01 -7.96029868E+01
 -6.84761111E+01 -6.00001801E+01 -5.37505918E+01 -4.79867960E+01 -4.03657106E+01
 -3.10198693E+01 -1.89605841E+01 -3.34253806E+00 -6.94774802E+00 -1.17004313E+01
 -1.27729540E+01 -6.15704232E+00  1.99723021E+01  1.89172018E+01  4.25640875E+00
 -1.76871344E-01  8.99202410E-02 -2.87399685E-02  1.07209707E-02 -3.66053817E-03
  1.41116707E-03 -5.96917139E-04  2.00030179E-04 -5.74090266E-05  7.25371608E-06
  0.00000000E+00  0.00000000E+00  0.00000000E+00  0.00000000E+00  0.00000000E+00
  0.00000000E+00  0.00000000E+00  0.00000000E+00  0.00000000E+00  0.00000000E+00
  0.00000000E+00  0.00000000E+00  0.00000000E+00  0.00000000E+00  0.00000000E+00
  0.00000000E+00  0.00000000E+00  0.00000000E+00  0.00000000E+00  0.00000000E+00
  0.00000000E+00  0.00000000E+00  0.00000000E+00  0.00000000E+00  0.00000000E+00
  0.00000000E+00  0.00000000E+00  0.00000000E+00  0.00000000E+00  0.00000000E+00
  0.00000000E+00  0.00000000E+00  0.00000000E+00  0.00000000E+00  0.00000000E+00
  0.00000000E+00  0.00000000E+00  0.00000000E+00  0.00000000E+00  0.00000000E+00
  0.00000000E+00  0.00000000E+00  0.00000000E+00  0.00000000E+00  0.00000000E+00
  0.00000000E+00  0.00000000E+00  0.00000000E+00  0.00000000E+00  0.00000000E+00
  0.00000000E+00  0.00000000E+00  0.00000000E+00  0.00000000E+00  0.00000000E+00
  0.00000000E+00  0.00000000E+00  0.00000000E+00  0.00000000E+00  0.00000000E+00
  0.00000000E+00  0.00000000E+00  0.00000000E+00  0.00000000E+00  0.00000000E+00
  0.00000000E+00  0.00000000E+00  0.00000000E+00  0.00000000E+00  0.00000000E+00
  0.00000000E+00  0.00000000E+00  0.00000000E+00  0.00000000E+00  0.00000000E+00
  0.00000000E+00  0.00000000E+00  0.00000000E+00  0.00000000E+00  0.00000000E+00
  0.00000000E+00  0.00000000E+00  0.00000000E+00  0.00000000E+00  0.00000000E+00
  0.00000000E+00  0.00000000E+00  0.00000000E+00  0.00000000E+00  0.00000000E+00
  0.00000000E+00  0.00000000E+00  0.00000000E+00  0.00000000E+00  0.00000000E+00
  0.00000000E+00  0.00000000E+00  0.00000000E+00  0.00000000E+00  0.00000000E+00
  0.00000000E+00  0.00000000E+00  0.00000000E+00  0.00000000E+00  0.00000000E+00
  0.00000000E+00  0.00000000E+00  0.00000000E+00  0.00000000E+00  0.00000000E+00
  0.00000000E+00  0.00000000E+00  0.00000000E+00  0.00000000E+00  0.00000000E+00
  0.00000000E+00  0.00000000E+00  0.00000000E+00  0.00000000E+00  0.00000000E+00
  0.00000000E+00  0.00000000E+00  0.00000000E+00  0.00000000E+00  0.00000000E+00
  0.00000000E+00  0.00000000E+00  0.00000000E+00  0.00000000E+00  0.00000000E+00
  0.00000000E+00  0.00000000E+00  0.00000000E+00  0.00000000E+00  0.00000000E+00
  0.00000000E+00  0.00000000E+00  0.00000000E+00  0.00000000E+00  0.00000000E+00
  0.00000000E+00  0.00000000E+00  0.00000000E+00  0.00000000E+00  0.00000000E+00
  0.00000000E+00  0.00000000E+00  0.00000000E+00  0.00000000E+00  0.00000000E+00
  0.00000000E+00  0.00000000E+00  0.00000000E+00  0.00000000E+00  0.00000000E+00
  0.00000000E+00  0.00000000E+00  0.00000000E+00  0.00000000E+00  0.00000000E+00
  0.00000000E+00  0.00000000E+00  0.00000000E+00  0.00000000E+00  0.00000000E+00
  0.00000000E+00  0.00000000E+00  0.00000000E+00  0.00000000E+00  0.00000000E+00
  0.00000000E+00  0.00000000E+00  0.00000000E+00  0.00000000E+00  0.00000000E+00
  0.00000000E+00  0.00000000E+00  0.00000000E+00  0.00000000E+00  0.00000000E+00
  0.00000000E+00  0.00000000E+00  0.00000000E+00  0.00000000E+00  0.00000000E+00
  0.00000000E+00  0.00000000E+00  0.00000000E+00  0.00000000E+00  0.00000000E+00
  0.00000000E+00  0.00000000E+00  0.00000000E+00  0.00000000E+00  0.00000000E+00
  0.00000000E+00  0.00000000E+00  0.00000000E+00  0.00000000E+00  0.00000000E+00
  0.00000000E+00  0.00000000E+00  0.00000000E+00  0.00000000E+00  0.00000000E+00
  0.00000000E+00  0.00000000E+00  0.00000000E+00  0.00000000E+00  0.00000000E+00
  0.00000000E+00  0.00000000E+00  0.00000000E+00  0.00000000E+00  0.00000000E+00
  0.00000000E+00  0.00000000E+00  0.00000000E+00  0.00000000E+00  0.00000000E+00
  0.00000000E+00  0.00000000E+00  0.00000000E+00  0.00000000E+00  0.00000000E+00
  0.00000000E+00  0.00000000E+00  0.00000000E+00  0.00000000E+00  0.00000000E+00
  0.00000000E+00  0.00000000E+00  0.00000000E+00  0.00000000E+00  0.00000000E+00
  0.00000000E+00  0.00000000E+00  0.00000000E+00  0.00000000E+00  0.00000000E+00
  0.00000000E+00  0.00000000E+00  0.00000000E+00  0.00000000E+00  0.00000000E+00
  0.00000000E+00  0.00000000E+00  0.00000000E+00  0.00000000E+00  0.00000000E+00
  0.00000000E+00  0.00000000E+00  0.00000000E+00  0.00000000E+00  0.00000000E+00
  0.00000000E+00  0.00000000E+00  0.00000000E+00  0.00000000E+00  0.00000000E+00
  0.00000000E+00  0.00000000E+00  0.00000000E+00  0.00000000E+00  0.00000000E+00
  0.00000000E+00  0.00000000E+00  0.00000000E+00  0.00000000E+00  0.00000000E+00
  0.00000000E+00  0.00000000E+00  0.00000000E+00  0.00000000E+00  0.00000000E+00
  0.00000000E+00  0.00000000E+00  0.00000000E+00  0.00000000E+00  0.00000000E+00
  0.00000000E+00  0.00000000E+00  0.00000000E+00  0.00000000E+00  0.00000000E+00
  0.00000000E+00  0.00000000E+00  0.00000000E+00  0.00000000E+00  0.00000000E+00
  0.00000000E+00  0.00000000E+00  0.00000000E+00  0.00000000E+00  0.00000000E+00
  0.00000000E+00  0.00000000E+00  0.00000000E+00  0.00000000E+00  0.00000000E+00
  0.00000000E+00  0.00000000E+00  0.00000000E+00  0.00000000E+00  0.00000000E+00
  0.00000000E+00  0.00000000E+00  0.00000000E+00  0.00000000E+00  0.00000000E+00
  0.00000000E+00  0.00000000E+00  0.00000000E+00  0.00000000E+00  0.00000000E+00
  0.00000000E+00  0.00000000E+00  0.00000000E+00  0.00000000E+00  0.00000000E+00
  0.00000000E+00  0.00000000E+00  0.00000000E+00  0.00000000E+00  0.00000000E+00
  0.00000000E+00  0.00000000E+00  0.00000000E+00  0.00000000E+00  0.00000000E+00
  0.00000000E+00  0.00000000E+00  0.00000000E+00  0.00000000E+00  0.00000000E+00
  0.00000000E+00  0.00000000E+00  0.00000000E+00  0.00000000E+00  0.00000000E+00
  0.00000000E+00  0.00000000E+00  0.00000000E+00  0.00000000E+00  0.00000000E+00
  0.00000000E+00  0.00000000E+00  0.00000000E+00  0.00000000E+00  0.00000000E+00
  0.00000000E+00  0.00000000E+00  0.00000000E+00  0.00000000E+00  0.00000000E+00
  0.00000000E+00  0.00000000E+00
MO    3                     OCC NO =   1.00000000 ORB. ENERGY = -156.70460523
  7.13062940E+01  6.66246666E+01  5.63694717E+01  4.64591087E+01  3.85162016E+01
  3.31324214E+01  2.90313106E+01  2.60074240E+01  2.32185900E+01  1.95310994E+01
  1.50090793E+01  9.17414923E+00  1.99330647E+00  4.14325607E+00  6.97749585E+00
  7.61708962E+00  2.63159524E+00 -1.63080359E+01 -2.01697754E+01 -1.72841448E+00
  1.00428650E+01  3.29802342E+00  1.17235059E-01 -5.30213291E-03  1.41990905E-03
 -5.67453372E-04  2.38624448E-04 -8.04171763E-05  2.33081367E-05 -2.94682924E-06
  0.00000000E+00  0.00000000E+00  0.00000000E+00  0.00000000E+00  0.00000000E+00
  0.00000000E+00  0.00000000E+00  0.00000000E+00  0.00000000E+00  0.00000000E+00
  0.00000000E+00  0.00000000E+00  0.00000000E+00  0.00000000E+00  0.00000000E+00
  0.00000000E+00  0.00000000E+00  0.00000000E+00  0.00000000E+00  0.00000000E+00
  0.00000000E+00  0.00000000E+00  0.00000000E+00  0.00000000E+00  0.00000000E+00
  0.00000000E+00  0.00000000E+00  0.00000000E+00  0.00000000E+00  0.00000000E+00
  0.00000000E+00  0.00000000E+00  0.00000000E+00  0.00000000E+00  0.00000000E+00
  0.00000000E+00  0.00000000E+00  0.00000000E+00  0.00000000E+00  0.00000000E+00
  0.00000000E+00  0.00000000E+00  0.00000000E+00  0.00000000E+00  0.00000000E+00
  0.00000000E+00  0.00000000E+00  0.00000000E+00  0.00000000E+00  0.00000000E+00
  0.00000000E+00  0.00000000E+00  0.00000000E+00  0.00000000E+00  0.00000000E+00
  0.00000000E+00  0.00000000E+00  0.00000000E+00  0.00000000E+00  0.00000000E+00
  0.00000000E+00  0.00000000E+00  0.00000000E+00  0.00000000E+00  0.00000000E+00
  0.00000000E+00  0.00000000E+00  0.00000000E+00  0.00000000E+00  0.00000000E+00
  0.00000000E+00  0.00000000E+00  0.00000000E+00  0.00000000E+00  0.00000000E+00
  0.00000000E+00  0.00000000E+00  0.00000000E+00  0.00000000E+00  0.00000000E+00
  0.00000000E+00  0.00000000E+00  0.00000000E+00  0.00000000E+00  0.00000000E+00
  0.00000000E+00  0.00000000E+00  0.00000000E+00  0.00000000E+00  0.00000000E+00
  0.00000000E+00  0.00000000E+00  0.00000000E+00  0.00000000E+00  0.00000000E+00
  0.00000000E+00  0.00000000E+00  0.00000000E+00  0.00000000E+00  0.00000000E+00
  0.00000000E+00  0.00000000E+00  0.00000000E+00  0.00000000E+00  0.00000000E+00
  0.00000000E+00  0.00000000E+00  0.00000000E+00  0.00000000E+00  0.00000000E+00
  0.00000000E+00  0.00000000E+00  0.00000000E+00  0.00000000E+00  0.00000000E+00
  0.00000000E+00  0.00000000E+00  0.00000000E+00  0.00000000E+00  0.00000000E+00
  0.00000000E+00  0.00000000E+00  0.00000000E+00  0.00000000E+00  0.00000000E+00
  0.00000000E+00  0.00000000E+00  0.00000000E+00  0.00000000E+00  0.00000000E+00
  0.00000000E+00  0.00000000E+00  0.00000000E+00  0.00000000E+00  0.00000000E+00
  0.00000000E+00  0.00000000E+00  0.00000000E+00  0.00000000E+00  0.00000000E+00
  0.00000000E+00  0.00000000E+00  0.00000000E+00  0.00000000E+00  0.00000000E+00
  0.00000000E+00  0.00000000E+00  0.00000000E+00  0.00000000E+00  0.00000000E+00
  0.00000000E+00  0.00000000E+00  0.00000000E+00  0.00000000E+00  0.00000000E+00
  0.00000000E+00  0.00000000E+00  0.00000000E+00  0.00000000E+00  0.00000000E+00
  0.00000000E+00  0.00000000E+00  0.00000000E+00  0.00000000E+00  0.00000000E+00
  0.00000000E+00  0.00000000E+00  0.00000000E+00  0.00000000E+00  0.00000000E+00
  0.00000000E+00  0.00000000E+00  0.00000000E+00  0.00000000E+00  0.00000000E+00
  0.00000000E+00  0.00000000E+00  0.00000000E+00  0.00000000E+00  0.00000000E+00
  0.00000000E+00  0.00000000E+00  0.00000000E+00  0.00000000E+00  0.00000000E+00
  0.00000000E+00  0.00000000E+00  0.00000000E+00  0.00000000E+00  0.00000000E+00
  0.00000000E+00  0.00000000E+00  0.00000000E+00  0.00000000E+00  0.00000000E+00
  0.00000000E+00  0.00000000E+00  0.00000000E+00  0.00000000E+00  0.00000000E+00
  0.00000000E+00  0.00000000E+00  0.00000000E+00  0.00000000E+00  0.00000000E+00
  0.00000000E+00  0.00000000E+00  0.00000000E+00  0.00000000E+00  0.00000000E+00
  0.00000000E+00  0.00000000E+00  0.00000000E+00  0.00000000E+00  0.00000000E+00
  0.00000000E+00  0.00000000E+00  0.00000000E+00  0.00000000E+00  0.00000000E+00
  0.00000000E+00  0.00000000E+00  0.00000000E+00  0.00000000E+00  0.00000000E+00
  0.00000000E+00  0.00000000E+00  0.00000000E+00  0.00000000E+00  0.00000000E+00
  0.00000000E+00  0.00000000E+00  0.00000000E+00  0.00000000E+00  0.00000000E+00
  0.00000000E+00  0.00000000E+00  0.00000000E+00  0.00000000E+00  0.00000000E+00
  0.00000000E+00  0.00000000E+00  0.00000000E+00  0.00000000E+00  0.00000000E+00
  0.00000000E+00  0.00000000E+00  0.00000000E+00  0.00000000E+00  0.00000000E+00
  0.00000000E+00  0.00000000E+00  0.00000000E+00  0.00000000E+00  0.00000000E+00
  0.00000000E+00  0.00000000E+00  0.00000000E+00  0.00000000E+00  0.00000000E+00
  0.00000000E+00  0.00000000E+00  0.00000000E+00  0.00000000E+00  0.00000000E+00
  0.00000000E+00  0.00000000E+00  0.00000000E+00  0.00000000E+00  0.00000000E+00
  0.00000000E+00  0.00000000E+00  0.00000000E+00  0.00000000E+00  0.00000000E+00
  0.00000000E+00  0.00000000E+00  0.00000000E+00  0.00000000E+00  0.00000000E+00
  0.00000000E+00  0.00000000E+00  0.00000000E+00  0.00000000E+00  0.00000000E+00
  0.00000000E+00  0.00000000E+00  0.00000000E+00  0.00000000E+00  0.00000000E+00
  0.00000000E+00  0.00000000E+00  0.00000000E+00  0.00000000E+00  0.00000000E+00
  0.00000000E+00  0.00000000E+00  0.00000000E+00  0.00000000E+00  0.00000000E+00
  0.00000000E+00  0.00000000E+00  0.00000000E+00  0.00000000E+00  0.00000000E+00
  0.00000000E+00  0.00000000E+00  0.00000000E+00  0.00000000E+00  0.00000000E+00
  0.00000000E+00  0.00000000E+00  0.00000000E+00  0.00000000E+00  0.00000000E+00
  0.00000000E+00  0.00000000E+00  0.00000000E+00  0.00000000E+00  0.00000000E+00
  0.00000000E+00  0.00000000E+00  0.00000000E+00  0.00000000E+00  0.00000000E+00
  0.00000000E+00  0.00000000E+00  0.00000000E+00  0.00000000E+00  0.00000000E+00
  0.00000000E+00  0.00000000E+00  0.00000000E+00  0.00000000E+00  0.00000000E+00
  0.00000000E+00  0.00000000E+00  0.00000000E+00  0.00000000E+00  0.00000000E+00
  0.00000000E+00  0.00000000E+00  0.00000000E+00  0.00000000E+00  0.00000000E+00
  0.00000000E+00  0.00000000E+00  0.00000000E+00  0.00000000E+00  0.00000000E+00
  0.00000000E+00  0.00000000E+00  0.00000000E+00  0.00000000E+00  0.00000000E+00
  0.00000000E+00  0.00000000E+00
MO    4                     OCC NO =   1.00000000 ORB. ENERGY = -37.30338241
 -3.65131663E+01 -3.41158879E+01 -2.88646034E+01 -2.37898938E+01 -1.97226415E+01
 -1.69658181E+01 -1.48657995E+01 -1.33173854E+01 -1.18893325E+01 -1.00011127E+01
 -7.68556292E+00 -4.69772327E+00 -1.06801505E+00 -2.21995961E+00 -3.73854734E+00
 -4.08124214E+00 -1.33580080E+00  9.61976442E+00  1.25867403E+01  9.85779730E-01
 -1.18804943E+01 -3.58779162E+00  4.18448137E+00  1.28224502E+00  1.66396718E-02
  3.85993475E-03 -1.48664219E-03  4.71784807E-04 -1.33715698E-04  1.65883774E-05
  0.00000000E+00  0.00000000E+00  0.00000000E+00  0.00000000E+00  0.00000000E+00
  0.00000000E+00  0.00000000E+00  0.00000000E+00  0.00000000E+00  0.00000000E+00
  0.00000000E+00  0.00000000E+00  0.00000000E+00  0.00000000E+00  0.00000000E+00
  0.00000000E+00  0.00000000E+00  0.00000000E+00  0.00000000E+00  0.00000000E+00
  0.00000000E+00  0.00000000E+00  0.00000000E+00  0.00000000E+00  0.00000000E+00
  0.00000000E+00  0.00000000E+00  0.00000000E+00  0.00000000E+00  0.00000000E+00
  0.00000000E+00  0.00000000E+00  0.00000000E+00  0.00000000E+00  0.00000000E+00
  0.00000000E+00  0.00000000E+00  0.00000000E+00  0.00000000E+00  0.00000000E+00
  0.00000000E+00  0.00000000E+00  0.00000000E+00  0.00000000E+00  0.00000000E+00