atomref-proatoms B_q0_mult2_nist x2c-QZVPall
GAUSSIAN              7 MOL ORBITALS     92 PRIMITIVES        1 NUCLEI
  B    1    (CENTRE  1)   0.00000000  0.00000000  0.00000000  CHARGE = 5.0
CENTRE ASSIGNMENTS    1  1  1  1  1  1  1  1  1  1  1  1  1  1  1  1  1  1  1  1
CENTRE ASSIGNMENTS    1  1  1  1  1  1  1  1  1  1  1  1  1  1  1  1  1  1  1  1
CENTRE ASSIGNMENTS    1  1  1  1  1  1  1  1  1  1  1  1  1  1  1  1  1  1  1  1
CENTRE ASSIGNMENTS    1  1  1  1  1  1  1  1  1  1  1  1  1  1  1  1  1  1  1  1
CENTRE ASSIGNMENTS    1  1  1  1  1  1  1  1  1  1  1  1
TYPE ASSIGNMENTS      1  1  1  1  1  1  1  1  1  1  1  1  1  1  1  2  3  4  2  3
TYPE ASSIGNMENTS      4  2  3  4  2  3  4  2  3  4  2  3  4  2  3  4  2  3  4  5
TYPE ASSIGNMENTS      8  9  6 10  7  5  8  9  6 10  7  5  8  9  6 10  7 11 14 15
TYPE ASSIGNMENTS     17 20 18 12 16 19 13 11 14 15 17 20 18 12 16 19 13 21 24 25
TYPE ASSIGNMENTS     30 33 31 26 34 35 28 22 27 32 29 23
EXPONENTS  4.6450568E+04 6.9574521E+03 1.5834523E+03 4.4842596E+02 1.4633840E+02
EXPONENTS  5.2796866E+01 2.0523290E+01 8.4160257E+00 3.6510023E+01 1.0541854E+01
EXPONENTS  3.5994387E+00 1.5618434E+00 4.5000078E-01 1.8074012E-01 7.1600620E-02
EXPONENTS  7.2240425E+01 7.2240425E+01 7.2240425E+01 1.6807707E+01 1.6807707E+01
EXPONENTS  1.6807707E+01 5.2259461E+00 5.2259461E+00 5.2259461E+00 1.8508351E+00
EXPONENTS  1.8508351E+00 1.8508351E+00 7.2206783E-01 7.2206783E-01 7.2206783E-01
EXPONENTS  2.9491013E-01 2.9491013E-01 2.9491013E-01 1.2201087E-01 1.2201087E-01
EXPONENTS  1.2201087E-01 4.9865394E-02 4.9865394E-02 4.9865394E-02 1.1100000E+00
EXPONENTS  1.1100000E+00 1.1100000E+00 1.1100000E+00 1.1100000E+00 1.1100000E+00
EXPONENTS  4.0200000E-01 4.0200000E-01 4.0200000E-01 4.0200000E-01 4.0200000E-01
EXPONENTS  4.0200000E-01 1.4500000E-01 1.4500000E-01 1.4500000E-01 1.4500000E-01
EXPONENTS  1.4500000E-01 1.4500000E-01 8.8200000E-01 8.8200000E-01 8.8200000E-01
EXPONENTS  8.8200000E-01 8.8200000E-01 8.8200000E-01 8.8200000E-01 8.8200000E-01
EXPONENTS  8.8200000E-01 8.8200000E-01 3.1100000E-01 3.1100000E-01 3.1100000E-01
EXPONENTS  3.1100000E-01 3.1100000E-01 3.1100000E-01 3.1100000E-01 3.1100000E-01
EXPONENTS  3.1100000E-01 3.1100000E-01 6.7300000E-01 6.7300000E-01 6.7300000E-01
EXPONENTS  6.7300000E-01 6.7300000E-01 6.7300000E-01 6.7300000E-01 6.7300000E-01
EXPONENTS  6.7300000E-01 6.7300000E-01 6.7300000E-01 6.7300000E-01 6.7300000E-01
EXPONENTS  6.7300000E-01 6.7300000E-01
MO    1                     OCC NO =   1.00000000 ORB. ENERGY =  -6.92289053
  1.48757662E-01  1.92779251E-01  2.97584097E-01  4.66948902E-01  7.05284861E-01
  9.83684680E-01  1.19021699E+00  1.13666493E+00 -6.70394076E-03 -2.61986377E-02
  6.79337840E-01  1.90197416E-01  6.46367407E-03 -9.72201941E-04  1.38729194E-04
  0.00000000E+00  0.00000000E+00  0.00000000E+00  0.00000000E+00  0.00000000E+00
  0.00000000E+00  0.00000000E+00  0.00000000E+00  0.00000000E+00  0.00000000E+00
  0.00000000E+00  0.00000000E+00  0.00000000E+00  0.00000000E+00  0.00000000E+00
  0.00000000E+00  0.00000000E+00  0.00000000E+00  0.00000000E+00  0.00000000E+00
  0.00000000E+00  0.00000000E+00  0.00000000E+00  0.00000000E+00  0.00000000E+00
  0.00000000E+00  0.00000000E+00  0.00000000E+00  0.00000000E+00  0.00000000E+00
  0.00000000E+00  0.00000000E+00  0.00000000E+00  0.00000000E+00  0.00000000E+00
  0.00000000E+00  0.00000000E+00  0.00000000E+00  0.00000000E+00  0.00000000E+00
  0.00000000E+00  0.00000000E+00  0.00000000E+00  0.00000000E+00  0.00000000E+00
  0.00000000E+00  0.00000000E+00  0.00000000E+00  0.00000000E+00  0.00000000E+00
  0.00000000E+00  0.00000000E+00  0.00000000E+00  0.00000000E+00  0.00000000E+00
  0.00000000E+00  0.00000000E+00  0.00000000E+00  0.00000000E+00  0.00000000E+00
  0.00000000E+00  0.00000000E+00  0.00000000E+00  0.00000000E+00  0.00000000E+00
  0.00000000E+00  0.00000000E+00  0.00000000E+00  0.00000000E+00  0.00000000E+00
  0.00000000E+00  0.00000000E+00  0.00000000E+00  0.00000000E+00  0.00000000E+00
  0.00000000E+00  0.00000000E+00
MO    2                     OCC NO =   1.00000000 ORB. ENERGY =  -0.42192462
 -3.22078439E-02 -4.17390537E-02 -6.44305780E-02 -1.01100119E-01 -1.52702754E-01
 -2.12979703E-01 -2.57696460E-01 -2.46101788E-01 -1.58360750E-02 -6.18865243E-02
 -2.50277352E-01 -1.10889289E-01  1.22294044E-01  1.18483970E-01  2.27319710E-02
  0.00000000E+00  0.00000000E+00  0.00000000E+00  0.00000000E+00  0.00000000E+00
  0.00000000E+00  0.00000000E+00  0.00000000E+00  0.00000000E+00  0.00000000E+00
  0.00000000E+00  0.00000000E+00  0.00000000E+00  0.00000000E+00  0.00000000E+00
  0.00000000E+00  0.00000000E+00  0.00000000E+00  0.00000000E+00  0.00000000E+00
  0.00000000E+00  0.00000000E+00  0.00000000E+00  0.00000000E+00  0.00000000E+00
  0.00000000E+00  0.00000000E+00  0.00000000E+00  0.00000000E+00  0.00000000E+00
  0.00000000E+00  0.00000000E+00  0.00000000E+00  0.00000000E+00  0.00000000E+00
  0.00000000E+00  0.00000000E+00  0.00000000E+00  0.00000000E+00  0.00000000E+00
  0.00000000E+00  0.00000000E+00  0.00000000E+00  0.00000000E+00  0.00000000E+00
  0.00000000E+00  0.00000000E+00  0.00000000E+00  0.00000000E+00  0.00000000E+00
  0.00000000E+00  0.00000000E+00  0.00000000E+00  0.00000000E+00  0.00000000E+00
  0.00000000E+00  0.00000000E+00  0.00000000E+00  0.00000000E+00  0.00000000E+00
  0.00000000E+00  0.00000000E+00  0.00000000E+00  0.00000000E+00  0.00000000E+00
  0.00000000E+00  0.00000000E+00  0.00000000E+00  0.00000000E+00  0.00000000E+00
  0.00000000E+00  0.00000000E+00  0.00000000E+00  0.00000000E+00  0.00000000E+00
  0.00000000E+00  0.00000000E+00
MO    3                     OCC NO =   0.33333333 ORB. ENERGY =  -0.13676563
  0.00000000E+00  0.00000000E+00  0.00000000E+00  0.00000000E+00  0.00000000E+00
  0.00000000E+00  0.00000000E+00  0.00000000E+00  0.00000000E+00  0.00000000E+00
  0.00000000E+00  0.00000000E+00  0.00000000E+00  0.00000000E+00  0.00000000E+00
  2.14939189E-01  0.00000000E+00  0.00000000E+00  2.73528966E-01  0.00000000E+00
  0.00000000E+00  2.85636387E-01  0.00000000E+00  0.00000000E+00  2.62695956E-01
  0.00000000E+00  0.00000000E+00  2.03094383E-01  0.00000000E+00  0.00000000E+00
  1.09079880E-01  0.00000000E+00  0.00000000E+00  3.60980313E-02  0.00000000E+00
  0.00000000E+00  7.34555598E-03  0.00000000E+00  0.00000000E+00  0.00000000E+00
  0.00000000E+00  0.00000000E+00  0.00000000E+00  0.00000000E+00  0.00000000E+00
  0.00000000E+00  0.00000000E+00  0.00000000E+00  0.00000000E+00  0.00000000E+00
  0.00000000E+00  0.00000000E+00  0.00000000E+00  0.00000000E+00  0.00000000E+00
  0.00000000E+00  0.00000000E+00  0.00000000E+00  0.00000000E+00  0.00000000E+00
  0.00000000E+00  0.00000000E+00  0.00000000E+00  0.00000000E+00  0.00000000E+00
  0.00000000E+00  0.00000000E+00  0.00000000E+00  0.00000000E+00  0.00000000E+00
  0.00000000E+00  0.00000000E+00  0.00000000E+00  0.00000000E+00  0.00000000E+00
  0.00000000E+00  0.00000000E+00  0.00000000E+00  0.00000000E+00  0.00000000E+00
  0.00000000E+00  0.00000000E+00  0.00000000E+00  0.00000000E+00  0.00000000E+00
  0.00000000E+00  0.00000000E+00  0.00000000E+00  0.00000000E+00  0.00000000E+00
  0.00000000E+00  0.00000000E+00
MO    4                     OCC NO =   0.33333333 ORB. ENERGY =  -0.13676563
  0.00000000E+00  0.00000000E+00  0.00000000E+00  0.00000000E+00  0.00000000E+00
  0.00000000E+00  0.00000000E+00  0.00000000E+00  0.00000000E+00  0.00000000E+00
  0.00000000E+00  0.00000000E+00  0.00000000E+00  0.00000000E+00  0.00000000E+00
  0.00000000E+00  2.14939189E-01  0.00000000E+00  0.00000000E+00  2.73528966E-01
  0.00000000E+00  0.00000000E+00  2.85636387E-01  0.00000000E+00  0.00000000E+00
  2.62695956E-01  0.00000000E+00  0.00000000E+00  2.03094383E-01  0.00000000E+00
  0.00000000E+00  1.09079880E-01  0.00000000E+00  0.00000000E+00  3.60980313E-02
  0.00000000E+00  0.00000000E+00  7.34555598E-03  0.00000000E+00  0.00000000E+00
  0.00000000E+00  0.00000000E+00  0.00000000E+00  0.00000000E+00  0.00000000E+00
  0.00000000E+00  0.00000000E+00  0.00000000E+00  0.00000000E+00  0.00000000E+00
  0.00000000E+00  0.00000000E+00  0.00000000E+00  0.00000000E+00  0.00000000E+00
  0.00000000E+00  0.00000000E+00  0.00000000E+00  0.00000000E+00  0.00000000E+00
  0.00000000E+00  0.00000000E+00  0.00000000E+00  0.00000000E+00  0.00000000E+00
  0.00000000E+00  0.00000000E+00  0.00000000E+00  0.00000000E+00  0.00000000E+00
  0.00000000E+00  0.00000000E+00  0.00000000E+00  0.00000000E+00  0.00000000E+00
  0.00000000E+00  0.00000000E+00  0.00000000E+00  0.00000000E+00  0.00000000E+00
  0.00000000E+00  0.00000000E+00  0.00000000E+00  0.00000000E+00  0.00000000E+00
  0.00000000E+00  0.00000000E+00  0.00000000E+00  0.00000000E+00  0.00000000E+00
  0.00000000E+00  0.00000000E+00
MO    5                     OCC NO =   0.33333333 ORB. ENERGY =  -0.13676563
  0.00000000E+00  0.00000000E+00  0.00000000E+00  0.00000000E+00  0.00000000E+00
  0.00000000E+00  0.00000000E+00  0.00000000E+00  0.00000000E+00  0.00000000E+00
  0.00000000E+00  0.00000000E+00  0.00000000E+00  0.00000000E+00  0.00000000E+00
  0.00000000E+00  0.00000000E+00  2.14939189E-01  0.00000000E+00  0.00000000E+00
  2.73528966E-01  0.00000000E+00  0.00000000E+00  2.85636387E-01  0.00000000E+00
  0.00000000E+00  2.62695956E-01  0.00000000E+00  0.00000000E+00  2.03094383E-01
  0.00000000E+00  0.00000000E+00  1.09079880E-01  0.00000000E+00  0.00000000E+00
  3.60980313E-02  0.00000000E+00  0.00000000E+00  7.34555598E-03  0.00000000E+00
  0.00000000E+00  0.00000000E+00  0.00000000E+00  0.00000000E+00  0.00000000E+00
  0.00000000E+00  0.00000000E+00  0.00000000E+00  0.00000000E+00  0.00000000E+00
  0.00000000E+00  0.00000000E+00  0.00000000E+00  0.00000000E+00  0.00000000E+00
  0.00000000E+00  0.00000000E+00  0.00000000E+00  0.00000000E+00  0.00000000E+00
  0.00000000E+00  0.00000000E+00  0.00000000E+00  0.00000000E+00  0.00000000E+00
  0.00000000E+00  0.00000000E+00  0.00000000E+00  0.00000000E+00  0.00000000E+00
  0.00000000E+00  0.00000000E+00  0.00000000E+00  0.00000000E+00  0.00000000E+00
  0.00000000E+00  0.00000000E+00  0.00000000E+00  0.00000000E+00  0.00000000E+00
  0.00000000E+00  0.00000000E+00  0.00000000E+00  0.00000000E+00  0.00000000E+00
  0.00000000E+00  0.00000000E+00  0.00000000E+00  0.00000000E+00  0.00000000E+00
  0.00000000E+00  0.00000000E+00
MO    7                     OCC NO =   1.00000000 ORB. ENERGY =  -6.91288641
  1.48872071E-01  1.92927517E-01  2.97812967E-01  4.67308030E-01  7.05827292E-01
  9.84441228E-01  1.19113238E+00  1.13753913E+00 -6.33048110E-03 -2.47391776E-02
  6.79200193E-01  1.90090504E-01  5.90547583E-03 -8.87799283E-04  1.17616598E-04
  0.00000000E+00  0.00000000E+00  0.00000000E+00  0.00000000E+00  0.00000000E+00
  0.00000000E+00  0.00000000E+00  0.00000000E+00  0.00000000E+00  0.00000000E+00
  0.00000000E+00  0.00000000E+00  0.00000000E+00  0.00000000E+00  0.00000000E+00
  0.00000000E+00  0.00000000E+00  0.00000000E+00  0.00000000E+00  0.00000000E+00
  0.00000000E+00  0.00000000E+00  0.00000000E+00  0.00000000E+00  0.00000000E+00
  0.00000000E+00  0.00000000E+00  0.00000000E+00  0.00000000E+00  0.00000000E+00
  0.00000000E+00  0.00000000E+00  0.00000000E+00  0.00000000E+00  0.00000000E+00
  0.00000000E+00  0.00000000E+00  0.00000000E+00  0.00000000E+00  0.00000000E+00
  0.00000000E+00  0.00000000E+00  0.00000000E+00  0.00000000E+00  0.00000000E+00
  0.00000000E+00  0.00000000E+00  0.00000000E+00  0.00000000E+00  0.00000000E+00
  0.00000000E+00  0.00000000E+00  0.00000000E+00  0.00000000E+00  0.00000000E+00
  0.00000000E+00  0.00000000E+00  0.00000000E+00  0.00000000E+00  0.00000000E+00
  0.00000000E+00  0.00000000E+00  0.00000000E+00  0.00000000E+00  0.00000000E+00
  0.00000000E+00  0.00000000E+00  0.00000000E+00  0.00000000E+00  0.00000000E+00
  0.00000000E+00  0.00000000E+00  0.00000000E+00  0.00000000E+00  0.00000000E+00
  0.00000000E+00  0.00000000E+00
MO    8                     OCC NO =   1.00000000 ORB. ENERGY =  -0.37011571
 -3.18267629E-02 -4.12452001E-02 -6.36682399E-02 -9.99039097E-02 -1.50895986E-01
 -2.10459742E-01 -2.54647414E-01 -2.43189929E-01 -1.61003805E-02 -6.29194157E-02
 -2.48353120E-01 -1.07066347E-01  1.21001481E-01  1.13518670E-01  2.56477057E-02
  0.00000000E+00  0.00000000E+00  0.00000000E+00  0.00000000E+00  0.00000000E+00
  0.00000000E+00  0.00000000E+00  0.00000000E+00  0.00000000E+00  0.00000000E+00
  0.00000000E+00  0.00000000E+00  0.00000000E+00  0.00000000E+00  0.00000000E+00
  0.00000000E+00  0.00000000E+00  0.00000000E+00  0.00000000E+00  0.00000000E+00
  0.00000000E+00  0.00000000E+00  0.00000000E+00  0.00000000E+00  0.00000000E+00
  0.00000000E+00  0.00000000E+00  0.00000000E+00  0.00000000E+00  0.00000000E+00
  0.00000000E+00  0.00000000E+00  0.00000000E+00  0.00000000E+00  0.00000000E+00
  0.00000000E+00  0.00000000E+00  0.00000000E+00  0.00000000E+00  0.00000000E+00
  0.00000000E+00  0.00000000E+00  0.00000000E+00  0.00000000E+00  0.00000000E+00
  0.00000000E+00  0.00000000E+00  0.00000000E+00  0.00000000E+00  0.00000000E+00
  0.00000000E+00  0.00000000E+00  0.00000000E+00  0.00000000E+00  0.00000000E+00
  0.00000000E+00  0.00000000E+00  0.00000000E+00  0.00000000E+00  0.00000000E+00
  0.00000000E+00  0.00000000E+00  0.00000000E+00  0.00000000E+00  0.00000000E+00
  0.00000000E+00  0.00000000E+00  0.00000000E+00  0.00000000E+00  0.00000000E+00
  0.00000000E+00  0.00000000E+00  0.00000000E+00  0.00000000E+00  0.00000000E+00
  0.00000000E+00  0.00000000E+00
END DATA
SCF      ENERGY =     -24.590726985122   VIRIAL(-V/T)  =   2.00000000

$MOSPIN
 1 1 1 1 1 2 2
$END
