atomref-proatoms Be_q0_mult1_nist x2c-QZVPall
GAUSSIAN              4 MOL ORBITALS     61 PRIMITIVES        1 NUCLEI
  Be   1    (CENTRE  1)   0.00000000  0.00000000  0.00000000  CHARGE = 4.0
CENTRE ASSIGNMENTS    1  1  1  1  1  1  1  1  1  1  1  1  1  1  1  1  1  1  1  1
CENTRE ASSIGNMENTS    1  1  1  1  1  1  1  1  1  1  1  1  1  1  1  1  1  1  1  1
CENTRE ASSIGNMENTS    1  1  1  1  1  1  1  1  1  1  1  1  1  1  1  1  1  1  1  1
CENTRE ASSIGNMENTS    1
TYPE ASSIGNMENTS      1  1  1  1  1  1  1  1  1  1  1  1  1  1  1  2  3  4  2  3
TYPE ASSIGNMENTS      4  2  3  4  2  3  4  2  3  4  2  3  4  5  8  9  6 10  7  5
TYPE ASSIGNMENTS      8  9  6 10  7  5  8  9  6 10  7 11 14 15 17 20 18 12 16 19
TYPE ASSIGNMENTS     13
EXPONENTS  2.9646959E+04 4.4287614E+03 1.0054701E+03 2.8408657E+02 9.2524985E+01
EXPONENTS  3.3313398E+01 1.2913079E+01 5.2653298E+00 2.2995386E+01 6.6236406E+00
EXPONENTS  2.2288657E+00 9.5318467E-01 2.4651602E-01 1.0153895E-01 4.1551630E-02
EXPONENTS  1.4099789E+01 1.4099789E+01 1.4099789E+01 3.1803188E+00 3.1803188E+00
EXPONENTS  3.1803188E+00 9.0489220E-01 9.0489220E-01 9.0489220E-01 3.0411586E-01
EXPONENTS  3.0411586E-01 3.0411586E-01 1.1302607E-01 1.1302607E-01 1.1302607E-01
EXPONENTS  4.2831734E-02 4.2831734E-02 4.2831734E-02 1.4400000E+00 1.4400000E+00
EXPONENTS  1.4400000E+00 1.4400000E+00 1.4400000E+00 1.4400000E+00 3.6000000E-01
EXPONENTS  3.6000000E-01 3.6000000E-01 3.6000000E-01 3.6000000E-01 3.6000000E-01
EXPONENTS  9.0000000E-02 9.0000000E-02 9.0000000E-02 9.0000000E-02 9.0000000E-02
EXPONENTS  9.0000000E-02 2.9000000E-01 2.9000000E-01 2.9000000E-01 2.9000000E-01
EXPONENTS  2.9000000E-01 2.9000000E-01 2.9000000E-01 2.9000000E-01 2.9000000E-01
EXPONENTS  2.9000000E-01
MO    1                     OCC NO =   1.00000000 ORB. ENERGY =  -4.11518907
  9.41224929E-02  1.29957091E-01  2.07311709E-01  3.29524775E-01  4.99495871E-01
  6.95666212E-01  8.36676056E-01  7.94588000E-01 -5.10927425E-03 -1.97341797E-02
  4.75496442E-01  1.35518468E-01  4.15674768E-03 -8.16989108E-04  1.17636163E-04
  0.00000000E+00  0.00000000E+00  0.00000000E+00  0.00000000E+00  0.00000000E+00
  0.00000000E+00  0.00000000E+00  0.00000000E+00  0.00000000E+00  0.00000000E+00
  0.00000000E+00  0.00000000E+00  0.00000000E+00  0.00000000E+00  0.00000000E+00
  0.00000000E+00  0.00000000E+00  0.00000000E+00  0.00000000E+00  0.00000000E+00
  0.00000000E+00  0.00000000E+00  0.00000000E+00  0.00000000E+00  0.00000000E+00
  0.00000000E+00  0.00000000E+00  0.00000000E+00  0.00000000E+00  0.00000000E+00
  0.00000000E+00  0.00000000E+00  0.00000000E+00  0.00000000E+00  0.00000000E+00
  0.00000000E+00  0.00000000E+00  0.00000000E+00  0.00000000E+00  0.00000000E+00
  0.00000000E+00  0.00000000E+00  0.00000000E+00  0.00000000E+00  0.00000000E+00
  0.00000000E+00
MO    2                     OCC NO =   1.00000000 ORB. ENERGY =  -0.23859616
 -1.84612756E-02 -2.54899079E-02 -4.06623165E-02 -6.46333039E-02 -9.79715968E-02
 -1.36448635E-01 -1.64106440E-01 -1.55851249E-01 -1.03534170E-02 -3.99892787E-02
 -1.49704860E-01 -8.01272143E-02  7.20838428E-02  7.70351677E-02  1.57745914E-02
  0.00000000E+00  0.00000000E+00  0.00000000E+00  0.00000000E+00  0.00000000E+00
  0.00000000E+00  0.00000000E+00  0.00000000E+00  0.00000000E+00  0.00000000E+00
  0.00000000E+00  0.00000000E+00  0.00000000E+00  0.00000000E+00  0.00000000E+00
  0.00000000E+00  0.00000000E+00  0.00000000E+00  0.00000000E+00  0.00000000E+00
  0.00000000E+00  0.00000000E+00  0.00000000E+00  0.00000000E+00  0.00000000E+00
  0.00000000E+00  0.00000000E+00  0.00000000E+00  0.00000000E+00  0.00000000E+00
  0.00000000E+00  0.00000000E+00  0.00000000E+00  0.00000000E+00  0.00000000E+00
  0.00000000E+00  0.00000000E+00  0.00000000E+00  0.00000000E+00  0.00000000E+00
  0.00000000E+00  0.00000000E+00  0.00000000E+00  0.00000000E+00  0.00000000E+00
  0.00000000E+00
MO    4                     OCC NO =   1.00000000 ORB. ENERGY =  -4.11518907
  9.41224929E-02  1.29957091E-01  2.07311709E-01  3.29524775E-01  4.99495871E-01
  6.95666212E-01  8.36676056E-01  7.94588000E-01 -5.10927425E-03 -1.97341797E-02
  4.75496442E-01  1.35518468E-01  4.15674768E-03 -8.16989108E-04  1.17636163E-04
  0.00000000E+00  0.00000000E+00  0.00000000E+00  0.00000000E+00  0.00000000E+00
  0.00000000E+00  0.00000000E+00  0.00000000E+00  0.00000000E+00  0.00000000E+00
  0.00000000E+00  0.00000000E+00  0.00000000E+00  0.00000000E+00  0.00000000E+00
  0.00000000E+00  0.00000000E+00  0.00000000E+00  0.00000000E+00  0.00000000E+00
  0.00000000E+00  0.00000000E+00  0.00000000E+00  0.00000000E+00  0.00000000E+00
  0.00000000E+00  0.00000000E+00  0.00000000E+00  0.00000000E+00  0.00000000E+00
  0.00000000E+00  0.00000000E+00  0.00000000E+00  0.00000000E+00  0.00000000E+00
  0.00000000E+00  0.00000000E+00  0.00000000E+00  0.00000000E+00  0.00000000E+00
  0.00000000E+00  0.00000000E+00  0.00000000E+00  0.00000000E+00  0.00000000E+00
  0.00000000E+00
MO    5                     OCC NO =   1.00000000 ORB. ENERGY =  -0.23859616
 -1.84612756E-02 -2.54899079E-02 -4.06623165E-02 -6.46333039E-02 -9.79715968E-02
 -1.36448635E-01 -1.64106440E-01 -1.55851249E-01 -1.03534170E-02 -3.99892787E-02
 -1.49704860E-01 -8.01272143E-02  7.20838428E-02  7.70351677E-02  1.57745914E-02
  0.00000000E+00  0.00000000E+00  0.00000000E+00  0.00000000E+00  0.00000000E+00
  0.00000000E+00  0.00000000E+00  0.00000000E+00  0.00000000E+00  0.00000000E+00
  0.00000000E+00  0.00000000E+00  0.00000000E+00  0.00000000E+00  0.00000000E+00
  0.00000000E+00  0.00000000E+00  0.00000000E+00  0.00000000E+00  0.00000000E+00
  0.00000000E+00  0.00000000E+00  0.00000000E+00  0.00000000E+00  0.00000000E+00
  0.00000000E+00  0.00000000E+00  0.00000000E+00  0.00000000E+00  0.00000000E+00
  0.00000000E+00  0.00000000E+00  0.00000000E+00  0.00000000E+00  0.00000000E+00
  0.00000000E+00  0.00000000E+00  0.00000000E+00  0.00000000E+00  0.00000000E+00
  0.00000000E+00  0.00000000E+00  0.00000000E+00  0.00000000E+00  0.00000000E+00
  0.00000000E+00
END DATA
SCF      ENERGY =     -14.639177223365   VIRIAL(-V/T)  =   2.00000000

$MOSPIN
 1 1 2 2
$END
