atomref-proatoms Bi_q0_mult4_nist x2c-QZVPall
GAUSSIAN             83 MOL ORBITALS    387 PRIMITIVES        1 NUCLEI
  Bi   1    (CENTRE  1)   0.00000000  0.00000000  0.00000000  CHARGE = 83.0
CENTRE ASSIGNMENTS    1  1  1  1  1  1  1  1  1  1  1  1  1  1  1  1  1  1  1  1
CENTRE ASSIGNMENTS    1  1  1  1  1  1  1  1  1  1  1  1  1  1  1  1  1  1  1  1
CENTRE ASSIGNMENTS    1  1  1  1  1  1  1  1  1  1  1  1  1  1  1  1  1  1  1  1
CENTRE ASSIGNMENTS    1  1  1  1  1  1  1  1  1  1  1  1  1  1  1  1  1  1  1  1
CENTRE ASSIGNMENTS    1  1  1  1  1  1  1  1  1  1  1  1  1  1  1  1  1  1  1  1
CENTRE ASSIGNMENTS    1  1  1  1  1  1  1  1  1  1  1  1  1  1  1  1  1  1  1  1
CENTRE ASSIGNMENTS    1  1  1  1  1  1  1  1  1  1  1  1  1  1  1  1  1  1  1  1
CENTRE ASSIGNMENTS    1  1  1  1  1  1  1  1  1  1  1  1  1  1  1  1  1  1  1  1
CENTRE ASSIGNMENTS    1  1  1  1  1  1  1  1  1  1  1  1  1  1  1  1  1  1  1  1
CENTRE ASSIGNMENTS    1  1  1  1  1  1  1  1  1  1  1  1  1  1  1  1  1  1  1  1
CENTRE ASSIGNMENTS    1  1  1  1  1  1  1  1  1  1  1  1  1  1  1  1  1  1  1  1
CENTRE ASSIGNMENTS    1  1  1  1  1  1  1  1  1  1  1  1  1  1  1  1  1  1  1  1
CENTRE ASSIGNMENTS    1  1  1  1  1  1  1  1  1  1  1  1  1  1  1  1  1  1  1  1
CENTRE ASSIGNMENTS    1  1  1  1  1  1  1  1  1  1  1  1  1  1  1  1  1  1  1  1
CENTRE ASSIGNMENTS    1  1  1  1  1  1  1  1  1  1  1  1  1  1  1  1  1  1  1  1
CENTRE ASSIGNMENTS    1  1  1  1  1  1  1  1  1  1  1  1  1  1  1  1  1  1  1  1
CENTRE ASSIGNMENTS    1  1  1  1  1  1  1  1  1  1  1  1  1  1  1  1  1  1  1  1
CENTRE ASSIGNMENTS    1  1  1  1  1  1  1  1  1  1  1  1  1  1  1  1  1  1  1  1
CENTRE ASSIGNMENTS    1  1  1  1  1  1  1  1  1  1  1  1  1  1  1  1  1  1  1  1
CENTRE ASSIGNMENTS    1  1  1  1  1  1  1
TYPE ASSIGNMENTS      1  1  1  1  1  1  1  1  1  1  1  1  1  1  1  1  1  1  1  1
TYPE ASSIGNMENTS      1  1  1  1  1  1  1  1  1  1  2  3  4  2  3  4  2  3  4  2
TYPE ASSIGNMENTS      3  4  2  3  4  2  3  4  2  3  4  2  3  4  2  3  4  2  3  4
TYPE ASSIGNMENTS      2  3  4  2  3  4  2  3  4  2  3  4  2  3  4  2  3  4  2  3
TYPE ASSIGNMENTS      4  2  3  4  2  3  4  2  3  4  2  3  4  2  3  4  2  3  4  2
TYPE ASSIGNMENTS      3  4  2  3  4  2  3  4  2  3  4  2  3  4  2  3  4  2  3  4
TYPE ASSIGNMENTS      2  3  4  2  3  4  2  3  4  2  3  4  5  8  9  6 10  7  5  8
TYPE ASSIGNMENTS      9  6 10  7  5  8  9  6 10  7  5  8  9  6 10  7  5  8  9  6
TYPE ASSIGNMENTS     10  7  5  8  9  6 10  7  5  8  9  6 10  7  5  8  9  6 10  7
TYPE ASSIGNMENTS      5  8  9  6 10  7  5  8  9  6 10  7  5  8  9  6 10  7  5  8
TYPE ASSIGNMENTS      9  6 10  7  5  8  9  6 10  7  5  8  9  6 10  7  5  8  9  6
TYPE ASSIGNMENTS     10  7  5  8  9  6 10  7  5  8  9  6 10  7  5  8  9  6 10  7
TYPE ASSIGNMENTS      5  8  9  6 10  7  5  8  9  6 10  7 11 14 15 17 20 18 12 16
TYPE ASSIGNMENTS     19 13 11 14 15 17 20 18 12 16 19 13 11 14 15 17 20 18 12 16
TYPE ASSIGNMENTS     19 13 11 14 15 17 20 18 12 16 19 13 11 14 15 17 20 18 12 16
TYPE ASSIGNMENTS     19 13 11 14 15 17 20 18 12 16 19 13 11 14 15 17 20 18 12 16
TYPE ASSIGNMENTS     19 13 11 14 15 17 20 18 12 16 19 13 11 14 15 17 20 18 12 16
TYPE ASSIGNMENTS     19 13 11 14 15 17 20 18 12 16 19 13 11 14 15 17 20 18 12 16
TYPE ASSIGNMENTS     19 13 11 14 15 17 20 18 12 16 19 13 21 24 25 30 33 31 26 34
TYPE ASSIGNMENTS     35 28 22 27 32 29 23
EXPONENTS  6.5743816E+07 1.8070411E+07 5.5012607E+06 1.7362270E+06 5.8598240E+05
EXPONENTS  2.0881044E+05 7.8206883E+04 3.1506430E+04 1.3419937E+04 6.1450828E+03
EXPONENTS  2.9522714E+03 1.4536288E+03 7.6447915E+04 1.6576999E+04 4.8589420E+03
EXPONENTS  1.7518345E+03 6.9687002E+02 3.5189256E+02 1.7442540E+02 8.9907542E+01
EXPONENTS  4.6553104E+01 2.4725344E+01 1.1810736E+01 6.1531247E+00 2.4621661E+00
EXPONENTS  1.2966863E+00 5.0966379E-01 2.7911523E-01 1.2564264E-01 6.1406351E-02
EXPONENTS  3.3800000E+02 3.3800000E+02 3.3800000E+02 1.5171290E+07 1.5171290E+07
EXPONENTS  1.5171290E+07 2.9000597E+06 2.9000597E+06 2.9000597E+06 7.1654132E+05
EXPONENTS  7.1654132E+05 7.1654132E+05 2.0645287E+05 2.0645287E+05 2.0645287E+05
EXPONENTS  6.6899622E+04 6.6899622E+04 6.6899622E+04 2.3638564E+04 2.3638564E+04
EXPONENTS  2.3638564E+04 8.8837700E+03 8.8837700E+03 8.8837700E+03 3.5453510E+03
EXPONENTS  3.5453510E+03 3.5453510E+03 1.4793019E+03 1.4793019E+03 1.4793019E+03
EXPONENTS  6.5433335E+02 6.5433335E+02 6.5433335E+02 3.0846667E+02 3.0846667E+02
EXPONENTS  3.0846667E+02 1.5305747E+02 1.5305747E+02 1.5305747E+02 7.8554113E+01
EXPONENTS  7.8554113E+01 7.8554113E+01 2.4099747E+03 2.4099747E+03 2.4099747E+03
EXPONENTS  8.2043017E+02 8.2043017E+02 8.2043017E+02 3.6485699E+02 3.6485699E+02
EXPONENTS  3.6485699E+02 9.0924285E+01 9.0924285E+01 9.0924285E+01 4.7317832E+01
EXPONENTS  4.7317832E+01 4.7317832E+01 2.4266681E+01 2.4266681E+01 2.4266681E+01
EXPONENTS  1.0551239E+01 1.0551239E+01 1.0551239E+01 1.2208739E+02 1.2208739E+02
EXPONENTS  1.2208739E+02 5.0568534E+01 5.0568534E+01 5.0568534E+01 1.4649146E+01
EXPONENTS  1.4649146E+01 1.4649146E+01 7.9550247E+00 7.9550247E+00 7.9550247E+00
EXPONENTS  4.1417577E+00 4.1417577E+00 4.1417577E+00 8.0587026E+00 8.0587026E+00
EXPONENTS  8.0587026E+00 2.5332420E+00 2.5332420E+00 2.5332420E+00 1.2768969E+00
EXPONENTS  1.2768969E+00 1.2768969E+00 1.4974554E+00 1.4974554E+00 1.4974554E+00
EXPONENTS  5.0897953E-01 5.0897953E-01 5.0897953E-01 2.3849861E-01 2.3849861E-01
EXPONENTS  2.3849861E-01 9.5597971E-02 9.5597971E-02 9.5597971E-02 3.6063849E-02
EXPONENTS  3.6063849E-02 3.6063849E-02 7.8352104E+03 7.8352104E+03 7.8352104E+03
EXPONENTS  7.8352104E+03 7.8352104E+03 7.8352104E+03 2.3049097E+03 2.3049097E+03
EXPONENTS  2.3049097E+03 2.3049097E+03 2.3049097E+03 2.3049097E+03 9.0547376E+02
EXPONENTS  9.0547376E+02 9.0547376E+02 9.0547376E+02 9.0547376E+02 9.0547376E+02
EXPONENTS  4.0228625E+02 4.0228625E+02 4.0228625E+02 4.0228625E+02 4.0228625E+02
EXPONENTS  4.0228625E+02 1.9481058E+02 1.9481058E+02 1.9481058E+02 1.9481058E+02
EXPONENTS  1.9481058E+02 1.9481058E+02 9.8587506E+01 9.8587506E+01 9.8587506E+01
EXPONENTS  9.8587506E+01 9.8587506E+01 9.8587506E+01 5.1058427E+01 5.1058427E+01
EXPONENTS  5.1058427E+01 5.1058427E+01 5.1058427E+01 5.1058427E+01 2.6721212E+01
EXPONENTS  2.6721212E+01 2.6721212E+01 2.6721212E+01 2.6721212E+01 2.6721212E+01
EXPONENTS  5.2800000E+01 5.2800000E+01 5.2800000E+01 5.2800000E+01 5.2800000E+01
EXPONENTS  5.2800000E+01 4.1046730E+02 4.1046730E+02 4.1046730E+02 4.1046730E+02
EXPONENTS  4.1046730E+02 4.1046730E+02 1.5880238E+02 1.5880238E+02 1.5880238E+02
EXPONENTS  1.5880238E+02 1.5880238E+02 1.5880238E+02 3.2044225E+01 3.2044225E+01
EXPONENTS  3.2044225E+01 3.2044225E+01 3.2044225E+01 3.2044225E+01 1.3961854E+01
EXPONENTS  1.3961854E+01 1.3961854E+01 1.3961854E+01 1.3961854E+01 1.3961854E+01
EXPONENTS  1.9974285E+01 1.9974285E+01 1.9974285E+01 1.9974285E+01 1.9974285E+01
EXPONENTS  1.9974285E+01 7.3297180E+00 7.3297180E+00 7.3297180E+00 7.3297180E+00
EXPONENTS  7.3297180E+00 7.3297180E+00 3.6220003E+00 3.6220003E+00 3.6220003E+00
EXPONENTS  3.6220003E+00 3.6220003E+00 3.6220003E+00 1.7512099E+00 1.7512099E+00
EXPONENTS  1.7512099E+00 1.7512099E+00 1.7512099E+00 1.7512099E+00 8.0145490E-01
EXPONENTS  8.0145490E-01 8.0145490E-01 8.0145490E-01 8.0145490E-01 8.0145490E-01
EXPONENTS  3.4648341E-01 3.4648341E-01 3.4648341E-01 3.4648341E-01 3.4648341E-01
EXPONENTS  3.4648341E-01 1.2551143E-01 1.2551143E-01 1.2551143E-01 1.2551143E-01
EXPONENTS  1.2551143E-01 1.2551143E-01 6.2117884E+02 6.2117884E+02 6.2117884E+02
EXPONENTS  6.2117884E+02 6.2117884E+02 6.2117884E+02 6.2117884E+02 6.2117884E+02
EXPONENTS  6.2117884E+02 6.2117884E+02 2.1387601E+02 2.1387601E+02 2.1387601E+02
EXPONENTS  2.1387601E+02 2.1387601E+02 2.1387601E+02 2.1387601E+02 2.1387601E+02
EXPONENTS  2.1387601E+02 2.1387601E+02 9.2390520E+01 9.2390520E+01 9.2390520E+01
EXPONENTS  9.2390520E+01 9.2390520E+01 9.2390520E+01 9.2390520E+01 9.2390520E+01
EXPONENTS  9.2390520E+01 9.2390520E+01 4.3486453E+01 4.3486453E+01 4.3486453E+01
EXPONENTS  4.3486453E+01 4.3486453E+01 4.3486453E+01 4.3486453E+01 4.3486453E+01
EXPONENTS  4.3486453E+01 4.3486453E+01 2.1497375E+01 2.1497375E+01 2.1497375E+01
EXPONENTS  2.1497375E+01 2.1497375E+01 2.1497375E+01 2.1497375E+01 2.1497375E+01
EXPONENTS  2.1497375E+01 2.1497375E+01 1.0671122E+01 1.0671122E+01 1.0671122E+01
EXPONENTS  1.0671122E+01 1.0671122E+01 1.0671122E+01 1.0671122E+01 1.0671122E+01
EXPONENTS  1.0671122E+01 1.0671122E+01 5.3459024E+00 5.3459024E+00 5.3459024E+00
EXPONENTS  5.3459024E+00 5.3459024E+00 5.3459024E+00 5.3459024E+00 5.3459024E+00
EXPONENTS  5.3459024E+00 5.3459024E+00 1.0700000E+01 1.0700000E+01 1.0700000E+01
EXPONENTS  1.0700000E+01 1.0700000E+01 1.0700000E+01 1.0700000E+01 1.0700000E+01
EXPONENTS  1.0700000E+01 1.0700000E+01 2.7325635E+00 2.7325635E+00 2.7325635E+00
EXPONENTS  2.7325635E+00 2.7325635E+00 2.7325635E+00 2.7325635E+00 2.7325635E+00
EXPONENTS  2.7325635E+00 2.7325635E+00 1.3374294E+00 1.3374294E+00 1.3374294E+00
EXPONENTS  1.3374294E+00 1.3374294E+00 1.3374294E+00 1.3374294E+00 1.3374294E+00
EXPONENTS  1.3374294E+00 1.3374294E+00 4.8030000E-01 4.8030000E-01 4.8030000E-01
EXPONENTS  4.8030000E-01 4.8030000E-01 4.8030000E-01 4.8030000E-01 4.8030000E-01
EXPONENTS  4.8030000E-01 4.8030000E-01 2.0060000E-01 2.0060000E-01 2.0060000E-01
EXPONENTS  2.0060000E-01 2.0060000E-01 2.0060000E-01 2.0060000E-01 2.0060000E-01
EXPONENTS  2.0060000E-01 2.0060000E-01 4.2030000E-01 4.2030000E-01 4.2030000E-01
EXPONENTS  4.2030000E-01 4.2030000E-01 4.2030000E-01 4.2030000E-01 4.2030000E-01
EXPONENTS  4.2030000E-01 4.2030000E-01 4.2030000E-01 4.2030000E-01 4.2030000E-01
EXPONENTS  4.2030000E-01 4.2030000E-01
MO    1                     OCC NO =   1.00000000 ORB. ENERGY = -3326.59057939
  3.11657721E+02  3.01529407E+02  2.58267857E+02  2.13977314E+02  1.77511503E+02
  1.55048994E+02  1.35637085E+02  1.23118231E+02  1.10584456E+02  9.51557053E+01
  7.46691330E+01  4.77079105E+01 -8.77847634E-02 -1.85387075E-01 -3.22005778E-01
 -3.68668099E-01  1.77858819E+01  8.78960038E-01  5.62587608E-01 -2.84833407E-01
  1.35277362E-01 -5.52218759E-02  1.86489561E-02 -6.45777803E-03  1.79264257E-03
 -7.56257745E-04  2.29439030E-04 -1.02284424E-04  2.20017510E-05 -3.59150959E-06
  0.00000000E+00  0.00000000E+00  0.00000000E+00  0.00000000E+00  0.00000000E+00
  0.00000000E+00  0.00000000E+00  0.00000000E+00  0.00000000E+00  0.00000000E+00
  0.00000000E+00  0.00000000E+00  0.00000000E+00  0.00000000E+00  0.00000000E+00
  0.00000000E+00  0.00000000E+00  0.00000000E+00  0.00000000E+00  0.00000000E+00
  0.00000000E+00  0.00000000E+00  0.00000000E+00  0.00000000E+00  0.00000000E+00
  0.00000000E+00  0.00000000E+00  0.00000000E+00  0.00000000E+00  0.00000000E+00
  0.00000000E+00  0.00000000E+00  0.00000000E+00  0.00000000E+00  0.00000000E+00
  0.00000000E+00  0.00000000E+00  0.00000000E+00  0.00000000E+00  0.00000000E+00
  0.00000000E+00  0.00000000E+00  0.00000000E+00  0.00000000E+00  0.00000000E+00
  0.00000000E+00  0.00000000E+00  0.00000000E+00  0.00000000E+00  0.00000000E+00
  0.00000000E+00  0.00000000E+00  0.00000000E+00  0.00000000E+00  0.00000000E+00
  0.00000000E+00  0.00000000E+00  0.00000000E+00  0.00000000E+00  0.00000000E+00
  0.00000000E+00  0.00000000E+00  0.00000000E+00  0.00000000E+00  0.00000000E+00
  0.00000000E+00  0.00000000E+00  0.00000000E+00  0.00000000E+00  0.00000000E+00
  0.00000000E+00  0.00000000E+00  0.00000000E+00  0.00000000E+00  0.00000000E+00
  0.00000000E+00  0.00000000E+00  0.00000000E+00  0.00000000E+00  0.00000000E+00
  0.00000000E+00  0.00000000E+00  0.00000000E+00  0.00000000E+00  0.00000000E+00
  0.00000000E+00  0.00000000E+00  0.00000000E+00  0.00000000E+00  0.00000000E+00
  0.00000000E+00  0.00000000E+00  0.00000000E+00  0.00000000E+00  0.00000000E+00
  0.00000000E+00  0.00000000E+00  0.00000000E+00  0.00000000E+00  0.00000000E+00
  0.00000000E+00  0.00000000E+00  0.00000000E+00  0.00000000E+00  0.00000000E+00
  0.00000000E+00  0.00000000E+00  0.00000000E+00  0.00000000E+00  0.00000000E+00
  0.00000000E+00  0.00000000E+00  0.00000000E+00  0.00000000E+00  0.00000000E+00
  0.00000000E+00  0.00000000E+00  0.00000000E+00  0.00000000E+00  0.00000000E+00
  0.00000000E+00  0.00000000E+00  0.00000000E+00  0.00000000E+00  0.00000000E+00
  0.00000000E+00  0.00000000E+00  0.00000000E+00  0.00000000E+00  0.00000000E+00
  0.00000000E+00  0.00000000E+00  0.00000000E+00  0.00000000E+00  0.00000000E+00
  0.00000000E+00  0.00000000E+00  0.00000000E+00  0.00000000E+00  0.00000000E+00
  0.00000000E+00  0.00000000E+00  0.00000000E+00  0.00000000E+00  0.00000000E+00
  0.00000000E+00  0.00000000E+00  0.00000000E+00  0.00000000E+00  0.00000000E+00
  0.00000000E+00  0.00000000E+00  0.00000000E+00  0.00000000E+00  0.00000000E+00
  0.00000000E+00  0.00000000E+00  0.00000000E+00  0.00000000E+00  0.00000000E+00
  0.00000000E+00  0.00000000E+00  0.00000000E+00  0.00000000E+00  0.00000000E+00
  0.00000000E+00  0.00000000E+00  0.00000000E+00  0.00000000E+00  0.00000000E+00
  0.00000000E+00  0.00000000E+00  0.00000000E+00  0.00000000E+00  0.00000000E+00
  0.00000000E+00  0.00000000E+00  0.00000000E+00  0.00000000E+00  0.00000000E+00
  0.00000000E+00  0.00000000E+00  0.00000000E+00  0.00000000E+00  0.00000000E+00
  0.00000000E+00  0.00000000E+00  0.00000000E+00  0.00000000E+00  0.00000000E+00
  0.00000000E+00  0.00000000E+00  0.00000000E+00  0.00000000E+00  0.00000000E+00
  0.00000000E+00  0.00000000E+00  0.00000000E+00  0.00000000E+00  0.00000000E+00
  0.00000000E+00  0.00000000E+00  0.00000000E+00  0.00000000E+00  0.00000000E+00
  0.00000000E+00  0.00000000E+00  0.00000000E+00  0.00000000E+00  0.00000000E+00
  0.00000000E+00  0.00000000E+00  0.00000000E+00  0.00000000E+00  0.00000000E+00
  0.00000000E+00  0.00000000E+00  0.00000000E+00  0.00000000E+00  0.00000000E+00
  0.00000000E+00  0.00000000E+00  0.00000000E+00  0.00000000E+00  0.00000000E+00
  0.00000000E+00  0.00000000E+00  0.00000000E+00  0.00000000E+00  0.00000000E+00
  0.00000000E+00  0.00000000E+00  0.00000000E+00  0.00000000E+00  0.00000000E+00
  0.00000000E+00  0.00000000E+00  0.00000000E+00  0.00000000E+00  0.00000000E+00
  0.00000000E+00  0.00000000E+00  0.00000000E+00  0.00000000E+00  0.00000000E+00
  0.00000000E+00  0.00000000E+00  0.00000000E+00  0.00000000E+00  0.00000000E+00
  0.00000000E+00  0.00000000E+00  0.00000000E+00  0.00000000E+00  0.00000000E+00
  0.00000000E+00  0.00000000E+00  0.00000000E+00  0.00000000E+00  0.00000000E+00
  0.00000000E+00  0.00000000E+00  0.00000000E+00  0.00000000E+00  0.00000000E+00
  0.00000000E+00  0.00000000E+00  0.00000000E+00  0.00000000E+00  0.00000000E+00
  0.00000000E+00  0.00000000E+00  0.00000000E+00  0.00000000E+00  0.00000000E+00
  0.00000000E+00  0.00000000E+00  0.00000000E+00  0.00000000E+00  0.00000000E+00
  0.00000000E+00  0.00000000E+00  0.00000000E+00  0.00000000E+00  0.00000000E+00
  0.00000000E+00  0.00000000E+00  0.00000000E+00  0.00000000E+00  0.00000000E+00
  0.00000000E+00  0.00000000E+00  0.00000000E+00  0.00000000E+00  0.00000000E+00
  0.00000000E+00  0.00000000E+00  0.00000000E+00  0.00000000E+00  0.00000000E+00
  0.00000000E+00  0.00000000E+00  0.00000000E+00  0.00000000E+00  0.00000000E+00
  0.00000000E+00  0.00000000E+00  0.00000000E+00  0.00000000E+00  0.00000000E+00
  0.00000000E+00  0.00000000E+00  0.00000000E+00  0.00000000E+00  0.00000000E+00
  0.00000000E+00  0.00000000E+00  0.00000000E+00  0.00000000E+00  0.00000000E+00
  0.00000000E+00  0.00000000E+00  0.00000000E+00  0.00000000E+00  0.00000000E+00
  0.00000000E+00  0.00000000E+00  0.00000000E+00  0.00000000E+00  0.00000000E+00
  0.00000000E+00  0.00000000E+00  0.00000000E+00  0.00000000E+00  0.00000000E+00
  0.00000000E+00  0.00000000E+00  0.00000000E+00  0.00000000E+00  0.00000000E+00
  0.00000000E+00  0.00000000E+00  0.00000000E+00  0.00000000E+00  0.00000000E+00
  0.00000000E+00  0.00000000E+00  0.00000000E+00  0.00000000E+00  0.00000000E+00
  0.00000000E+00  0.00000000E+00  0.00000000E+00  0.00000000E+00  0.00000000E+00
  0.00000000E+00  0.00000000E+00
MO    2                     OCC NO =   1.00000000 ORB. ENERGY = -599.02186534
 -1.26102689E+02 -1.22004579E+02 -1.04500127E+02 -8.65793236E+01 -7.18245573E+01
 -6.27357958E+01 -5.48813653E+01 -4.98159966E+01 -4.47445912E+01 -3.85018227E+01
 -3.02125628E+01 -1.93035353E+01 -3.03413502E+00 -6.40759736E+00 -1.11295967E+01
 -1.27424025E+01 -8.94602093E+00  1.71024228E+01  1.88500994E+01  6.19113141E+00
  2.80812012E-01  3.59863101E-02 -1.28515310E-02  4.47945343E-03 -1.27709594E-03
  5.45922492E-04 -1.66491311E-04  7.44145130E-05 -1.60474273E-05  2.62117657E-06
  0.00000000E+00  0.00000000E+00  0.00000000E+00  0.00000000E+00  0.00000000E+00
  0.00000000E+00  0.00000000E+00  0.00000000E+00  0.00000000E+00  0.00000000E+00
  0.00000000E+00  0.00000000E+00  0.00000000E+00  0.00000000E+00  0.00000000E+00
  0.00000000E+00  0.00000000E+00  0.00000000E+00  0.00000000E+00  0.00000000E+00
  0.00000000E+00  0.00000000E+00  0.00000000E+00  0.00000000E+00  0.00000000E+00
  0.00000000E+00  0.00000000E+00  0.00000000E+00  0.00000000E+00  0.00000000E+00
  0.00000000E+00  0.00000000E+00  0.00000000E+00  0.00000000E+00  0.00000000E+00
  0.00000000E+00  0.00000000E+00  0.00000000E+00  0.00000000E+00  0.00000000E+00
  0.00000000E+00  0.00000000E+00  0.00000000E+00  0.00000000E+00  0.00000000E+00
  0.00000000E+00  0.00000000E+00  0.00000000E+00  0.00000000E+00  0.00000000E+00
  0.00000000E+00  0.00000000E+00  0.00000000E+00  0.00000000E+00  0.00000000E+00
  0.00000000E+00  0.00000000E+00  0.00000000E+00  0.00000000E+00  0.00000000E+00
  0.00000000E+00  0.00000000E+00  0.00000000E+00  0.00000000E+00  0.00000000E+00
  0.00000000E+00  0.00000000E+00  0.00000000E+00  0.00000000E+00  0.00000000E+00
  0.00000000E+00  0.00000000E+00  0.00000000E+00  0.00000000E+00  0.00000000E+00
  0.00000000E+00  0.00000000E+00  0.00000000E+00  0.00000000E+00  0.00000000E+00
  0.00000000E+00  0.00000000E+00  0.00000000E+00  0.00000000E+00  0.00000000E+00
  0.00000000E+00  0.00000000E+00  0.00000000E+00  0.00000000E+00  0.00000000E+00
  0.00000000E+00  0.00000000E+00  0.00000000E+00  0.00000000E+00  0.00000000E+00
  0.00000000E+00  0.00000000E+00  0.00000000E+00  0.00000000E+00  0.00000000E+00
  0.00000000E+00  0.00000000E+00  0.00000000E+00  0.00000000E+00  0.00000000E+00
  0.00000000E+00  0.00000000E+00  0.00000000E+00  0.00000000E+00  0.00000000E+00
  0.00000000E+00  0.00000000E+00  0.00000000E+00  0.00000000E+00  0.00000000E+00
  0.00000000E+00  0.00000000E+00  0.00000000E+00  0.00000000E+00  0.00000000E+00
  0.00000000E+00  0.00000000E+00  0.00000000E+00  0.00000000E+00  0.00000000E+00
  0.00000000E+00  0.00000000E+00  0.00000000E+00  0.00000000E+00  0.00000000E+00
  0.00000000E+00  0.00000000E+00  0.00000000E+00  0.00000000E+00  0.00000000E+00
  0.00000000E+00  0.00000000E+00  0.00000000E+00  0.00000000E+00  0.00000000E+00
  0.00000000E+00  0.00000000E+00  0.00000000E+00  0.00000000E+00  0.00000000E+00
  0.00000000E+00  0.00000000E+00  0.00000000E+00  0.00000000E+00  0.00000000E+00
  0.00000000E+00  0.00000000E+00  0.00000000E+00  0.00000000E+00  0.00000000E+00
  0.00000000E+00  0.00000000E+00  0.00000000E+00  0.00000000E+00  0.00000000E+00
  0.00000000E+00  0.00000000E+00  0.00000000E+00  0.00000000E+00  0.00000000E+00
  0.00000000E+00  0.00000000E+00  0.00000000E+00  0.00000000E+00  0.00000000E+00
  0.00000000E+00  0.00000000E+00  0.00000000E+00  0.00000000E+00  0.00000000E+00
  0.00000000E+00  0.00000000E+00  0.00000000E+00  0.00000000E+00  0.00000000E+00
  0.00000000E+00  0.00000000E+00  0.00000000E+00  0.00000000E+00  0.00000000E+00
  0.00000000E+00  0.00000000E+00  0.00000000E+00  0.00000000E+00  0.00000000E+00
  0.00000000E+00  0.00000000E+00  0.00000000E+00  0.00000000E+00  0.00000000E+00
  0.00000000E+00  0.00000000E+00  0.00000000E+00  0.00000000E+00  0.00000000E+00
  0.00000000E+00  0.00000000E+00  0.00000000E+00  0.00000000E+00  0.00000000E+00
  0.00000000E+00  0.00000000E+00  0.00000000E+00  0.00000000E+00  0.00000000E+00
  0.00000000E+00  0.00000000E+00  0.00000000E+00  0.00000000E+00  0.00000000E+00
  0.00000000E+00  0.00000000E+00  0.00000000E+00  0.00000000E+00  0.00000000E+00
  0.00000000E+00  0.00000000E+00  0.00000000E+00  0.00000000E+00  0.00000000E+00
  0.00000000E+00  0.00000000E+00  0.00000000E+00  0.00000000E+00  0.00000000E+00
  0.00000000E+00  0.00000000E+00  0.00000000E+00  0.00000000E+00  0.00000000E+00
  0.00000000E+00  0.00000000E+00  0.00000000E+00  0.00000000E+00  0.00000000E+00
  0.00000000E+00  0.00000000E+00  0.00000000E+00  0.00000000E+00  0.00000000E+00
  0.00000000E+00  0.00000000E+00  0.00000000E+00  0.00000000E+00  0.00000000E+00
  0.00000000E+00  0.00000000E+00  0.00000000E+00  0.00000000E+00  0.00000000E+00
  0.00000000E+00  0.00000000E+00  0.00000000E+00  0.00000000E+00  0.00000000E+00
  0.00000000E+00  0.00000000E+00  0.00000000E+00  0.00000000E+00  0.00000000E+00
  0.00000000E+00  0.00000000E+00  0.00000000E+00  0.00000000E+00  0.00000000E+00
  0.00000000E+00  0.00000000E+00  0.00000000E+00  0.00000000E+00  0.00000000E+00
  0.00000000E+00  0.00000000E+00  0.00000000E+00  0.00000000E+00  0.00000000E+00
  0.00000000E+00  0.00000000E+00  0.00000000E+00  0.00000000E+00  0.00000000E+00
  0.00000000E+00  0.00000000E+00  0.00000000E+00  0.00000000E+00  0.00000000E+00
  0.00000000E+00  0.00000000E+00  0.00000000E+00  0.00000000E+00  0.00000000E+00
  0.00000000E+00  0.00000000E+00  0.00000000E+00  0.00000000E+00  0.00000000E+00
  0.00000000E+00  0.00000000E+00  0.00000000E+00  0.00000000E+00  0.00000000E+00
  0.00000000E+00  0.00000000E+00  0.00000000E+00  0.00000000E+00  0.00000000E+00
  0.00000000E+00  0.00000000E+00  0.00000000E+00  0.00000000E+00  0.00000000E+00
  0.00000000E+00  0.00000000E+00  0.00000000E+00  0.00000000E+00  0.00000000E+00
  0.00000000E+00  0.00000000E+00  0.00000000E+00  0.00000000E+00  0.00000000E+00
  0.00000000E+00  0.00000000E+00  0.00000000E+00  0.00000000E+00  0.00000000E+00
  0.00000000E+00  0.00000000E+00  0.00000000E+00  0.00000000E+00  0.00000000E+00
  0.00000000E+00  0.00000000E+00  0.00000000E+00  0.00000000E+00  0.00000000E+00
  0.00000000E+00  0.00000000E+00  0.00000000E+00  0.00000000E+00  0.00000000E+00
  0.00000000E+00  0.00000000E+00  0.00000000E+00  0.00000000E+00  0.00000000E+00
  0.00000000E+00  0.00000000E+00  0.00000000E+00  0.00000000E+00  0.00000000E+00
  0.00000000E+00  0.00000000E+00
MO    3                     OCC NO =   1.00000000 ORB. ENERGY = -145.30343775
  6.08221147E+01  5.88455055E+01  5.04027212E+01  4.17591217E+01  3.46425717E+01
  3.02588611E+01  2.64704957E+01  2.40273564E+01  2.15813054E+01  1.85702802E+01
  1.45721869E+01  9.31052178E+00  1.79469004E+00  3.79009209E+00  6.58315339E+00
  7.53712763E+00  4.44878526E+00 -1.34052712E+01 -1.93238667E+01 -5.88364497E+00
  8.43355080E+00  5.20370505E+00  4.61948977E-01 -3.07950375E-02  6.83231774E-03
 -2.73788794E-03  7.99926179E-04 -3.54837754E-04  7.63091771E-05 -1.24442290E-05
  0.00000000E+00  0.00000000E+00  0.00000000E+00  0.00000000E+00  0.00000000E+00
  0.00000000E+00  0.00000000E+00  0.00000000E+00  0.00000000E+00  0.00000000E+00
  0.00000000E+00  0.00000000E+00  0.00000000E+00  0.00000000E+00  0.00000000E+00
  0.00000000E+00  0.00000000E+00  0.00000000E+00  0.00000000E+00  0.00000000E+00
  0.00000000E+00  0.00000000E+00  0.00000000E+00  0.00000000E+00  0.00000000E+00
  0.00000000E+00  0.00000000E+00  0.00000000E+00  0.00000000E+00  0.00000000E+00
  0.00000000E+00  0.00000000E+00  0.00000000E+00  0.00000000E+00  0.00000000E+00
  0.00000000E+00  0.00000000E+00  0.00000000E+00  0.00000000E+00  0.00000000E+00
  0.00000000E+00  0.00000000E+00  0.00000000E+00  0.00000000E+00  0.00000000E+00
  0.00000000E+00  0.00000000E+00  0.00000000E+00  0.00000000E+00  0.00000000E+00
  0.00000000E+00  0.00000000E+00  0.00000000E+00  0.00000000E+00  0.00000000E+00
  0.00000000E+00  0.00000000E+00  0.00000000E+00  0.00000000E+00  0.00000000E+00
  0.00000000E+00  0.00000000E+00  0.00000000E+00  0.00000000E+00  0.00000000E+00
  0.00000000E+00  0.00000000E+00  0.00000000E+00  0.00000000E+00  0.00000000E+00
  0.00000000E+00  0.00000000E+00  0.00000000E+00  0.00000000E+00  0.00000000E+00
  0.00000000E+00  0.00000000E+00  0.00000000E+00  0.00000000E+00  0.00000000E+00
  0.00000000E+00  0.00000000E+00  0.00000000E+00  0.00000000E+00  0.00000000E+00
  0.00000000E+00  0.00000000E+00  0.00000000E+00  0.00000000E+00  0.00000000E+00
  0.00000000E+00  0.00000000E+00  0.00000000E+00  0.00000000E+00  0.00000000E+00
  0.00000000E+00  0.00000000E+00  0.00000000E+00  0.00000000E+00  0.00000000E+00
  0.00000000E+00  0.00000000E+00  0.00000000E+00  0.00000000E+00  0.00000000E+00
  0.00000000E+00  0.00000000E+00  0.00000000E+00  0.00000000E+00  0.00000000E+00
  0.00000000E+00  0.00000000E+00  0.00000000E+00  0.00000000E+00  0.00000000E+00
  0.00000000E+00  0.00000000E+00  0.00000000E+00  0.00000000E+00  0.00000000E+00
  0.00000000E+00  0.00000000E+00  0.00000000E+00  0.00000000E+00  0.00000000E+00
  0.00000000E+00  0.00000000E+00  0.00000000E+00  0.00000000E+00  0.00000000E+00
  0.00000000E+00  0.00000000E+00  0.00000000E+00  0.00000000E+00  0.00000000E+00
  0.00000000E+00  0.00000000E+00  0.00000000E+00  0.00000000E+00  0.00000000E+00
  0.00000000E+00  0.00000000E+00  0.00000000E+00  0.00000000E+00  0.00000000E+00
  0.00000000E+00  0.00000000E+00  0.00000000E+00  0.00000000E+00  0.00000000E+00
  0.00000000E+00  0.00000000E+00  0.00000000E+00  0.00000000E+00  0.00000000E+00
  0.00000000E+00  0.00000000E+00  0.00000000E+00  0.00000000E+00  0.00000000E+00
  0.00000000E+00  0.00000000E+00  0.00000000E+00  0.00000000E+00  0.00000000E+00
  0.00000000E+00  0.00000000E+00  0.00000000E+00  0.00000000E+00  0.00000000E+00
  0.00000000E+00  0.00000000E+00  0.00000000E+00  0.00000000E+00  0.00000000E+00
  0.00000000E+00  0.00000000E+00  0.00000000E+00  0.00000000E+00  0.00000000E+00
  0.00000000E+00  0.00000000E+00  0.00000000E+00  0.00000000E+00  0.00000000E+00
  0.00000000E+00  0.00000000E+00  0.00000000E+00  0.00000000E+00  0.00000000E+00
  0.00000000E+00  0.00000000E+00  0.00000000E+00  0.00000000E+00  0.00000000E+00
  0.00000000E+00  0.00000000E+00  0.00000000E+00  0.00000000E+00  0.00000000E+00
  0.00000000E+00  0.00000000E+00  0.00000000E+00  0.00000000E+00  0.00000000E+00
  0.00000000E+00  0.00000000E+00  0.00000000E+00  0.00000000E+00  0.00000000E+00
  0.00000000E+00  0.00000000E+00  0.00000000E+00  0.00000000E+00  0.00000000E+00
  0.00000000E+00  0.00000000E+00  0.00000000E+00  0.00000000E+00  0.00000000E+00
  0.00000000E+00  0.00000000E+00  0.00000000E+00  0.00000000E+00  0.00000000E+00
  0.00000000E+00  0.00000000E+00  0.00000000E+00  0.00000000E+00  0.00000000E+00
  0.00000000E+00  0.00000000E+00  0.00000000E+00  0.00000000E+00  0.00000000E+00
  0.00000000E+00  0.00000000E+00  0.00000000E+00  0.00000000E+00  0.00000000E+00
  0.00000000E+00  0.00000000E+00  0.00000000E+00  0.00000000E+00  0.00000000E+00
  0.00000000E+00  0.00000000E+00  0.00000000E+00  0.00000000E+00  0.00000000E+00
  0.00000000E+00  0.00000000E+00  0.00000000E+00  0.00000000E+00  0.00000000E+00
  0.00000000E+00  0.00000000E+00  0.00000000E+00  0.00000000E+00  0.00000000E+00
  0.00000000E+00  0.00000000E+00  0.00000000E+00  0.00000000E+00  0.00000000E+00
  0.00000000E+00  0.00000000E+00  0.00000000E+00  0.00000000E+00  0.00000000E+00
  0.00000000E+00  0.00000000E+00  0.00000000E+00  0.00000000E+00  0.00000000E+00
  0.00000000E+00  0.00000000E+00  0.00000000E+00  0.00000000E+00  0.00000000E+00
  0.00000000E+00  0.00000000E+00  0.00000000E+00  0.00000000E+00  0.00000000E+00
  0.00000000E+00  0.00000000E+00  0.00000000E+00  0.00000000E+00  0.00000000E+00
  0.00000000E+00  0.00000000E+00  0.00000000E+00  0.00000000E+00  0.00000000E+00
  0.00000000E+00  0.00000000E+00  0.00000000E+00  0.00000000E+00  0.00000000E+00
  0.00000000E+00  0.00000000E+00  0.00000000E+00  0.00000000E+00  0.00000000E+00
  0.00000000E+00  0.00000000E+00  0.00000000E+00  0.00000000E+00  0.00000000E+00
  0.00000000E+00  0.00000000E+00  0.00000000E+00  0.00000000E+00  0.00000000E+00
  0.00000000E+00  0.00000000E+00  0.00000000E+00  0.00000000E+00  0.00000000E+00
  0.00000000E+00  0.00000000E+00  0.00000000E+00  0.00000000E+00  0.00000000E+00
  0.00000000E+00  0.00000000E+00  0.00000000E+00  0.00000000E+00  0.00000000E+00
  0.00000000E+00  0.00000000E+00  0.00000000E+00  0.00000000E+00  0.00000000E+00
  0.00000000E+00  0.00000000E+00  0.00000000E+00  0.00000000E+00  0.00000000E+00
  0.00000000E+00  0.00000000E+00  0.00000000E+00  0.00000000E+00  0.00000000E+00
  0.00000000E+00  0.00000000E+00  0.00000000E+00  0.00000000E+00  0.00000000E+00
  0.00000000E+00  0.00000000E+00  0.00000000E+00  0.00000000E+00  0.00000000E+00
  0.00000000E+00  0.00000000E+00
MO    4                     OCC NO =   1.00000000 ORB. ENERGY = -33.72354667
 -3.09655267E+01 -2.99592029E+01 -2.56608442E+01 -2.12602472E+01 -1.76370961E+01
 -1.54052778E+01 -1.34765594E+01 -1.22327175E+01 -1.09873932E+01 -9.45443134E+00
 -7.41893709E+00 -4.74013789E+00 -9.56013153E-01 -2.01894356E+00 -3.50677894E+00
 -4.01495132E+00 -2.30805675E+00  7.75690555E+00  1.18654991E+01  3.97762642E+00
 -9.10420429E+00 -6.81858670E+00  2.71403705E+00  2.50354089E+00  1.64802913E-01
 -2.42154965E-02  5.29727964E-03 -2.18116128E-03  4.48488867E-04 -7.24191492E-05
  0.00000000E+00  0.00000000E+00  0.00000000E+00  0.00000000E+00  0.00000000E+00
  0.00000000E+00  0.00000000E+00  0.00000000E+00  0.00000000E+00  0.00000000E+00
  0.00000000E+00  0.00000000E+00  0.00000000E+00  0.00000000E+00  0.00000000E+00
  0.00000000E+00  0.00000000E+00  0.00000000E+00  0.00000000E+00  0.00000000E+00
  0.00000000E+00  0.00000000E+00  0.00000000E+00  0.00000000E+00  0.00000000E+00
  0.00000000E+00  0.00000000E+00  0.00000000E+00  0.00000000E+00  0.00000000E+00
  0.00000000E+00  0.00000000E+00  0.00000000E+00  0.00000000E+00  0.00000000E+00
  0.00000000E+00  0.00000000E+00  0.00000000E+00  0.00000000E+00  0.00000000E+00
  0.00000000E+00  0.00000000E+00  0.00000000E+00  0.00000000E+00  0.00000000E+00