atomref-proatoms Br_q0_mult2_nist x2c-QZVPall
GAUSSIAN             36 MOL ORBITALS    185 PRIMITIVES        1 NUCLEI
  Br   1    (CENTRE  1)   0.00000000  0.00000000  0.00000000  CHARGE = 35.0
CENTRE ASSIGNMENTS    1  1  1  1  1  1  1  1  1  1  1  1  1  1  1  1  1  1  1  1
CENTRE ASSIGNMENTS    1  1  1  1  1  1  1  1  1  1  1  1  1  1  1  1  1  1  1  1
CENTRE ASSIGNMENTS    1  1  1  1  1  1  1  1  1  1  1  1  1  1  1  1  1  1  1  1
CENTRE ASSIGNMENTS    1  1  1  1  1  1  1  1  1  1  1  1  1  1  1  1  1  1  1  1
CENTRE ASSIGNMENTS    1  1  1  1  1  1  1  1  1  1  1  1  1  1  1  1  1  1  1  1
CENTRE ASSIGNMENTS    1  1  1  1  1  1  1  1  1  1  1  1  1  1  1  1  1  1  1  1
CENTRE ASSIGNMENTS    1  1  1  1  1  1  1  1  1  1  1  1  1  1  1  1  1  1  1  1
CENTRE ASSIGNMENTS    1  1  1  1  1  1  1  1  1  1  1  1  1  1  1  1  1  1  1  1
CENTRE ASSIGNMENTS    1  1  1  1  1  1  1  1  1  1  1  1  1  1  1  1  1  1  1  1
CENTRE ASSIGNMENTS    1  1  1  1  1
TYPE ASSIGNMENTS      1  1  1  1  1  1  1  1  1  1  1  1  1  1  1  1  1  1  1  1
TYPE ASSIGNMENTS      1  1  1  1  2  3  4  2  3  4  2  3  4  2  3  4  2  3  4  2
TYPE ASSIGNMENTS      3  4  2  3  4  2  3  4  2  3  4  2  3  4  2  3  4  2  3  4
TYPE ASSIGNMENTS      2  3  4  2  3  4  2  3  4  2  3  4  2  3  4  2  3  4  2  3
TYPE ASSIGNMENTS      4  2  3  4  2  3  4  2  3  4  5  8  9  6 10  7  5  8  9  6
TYPE ASSIGNMENTS     10  7  5  8  9  6 10  7  5  8  9  6 10  7  5  8  9  6 10  7
TYPE ASSIGNMENTS      5  8  9  6 10  7  5  8  9  6 10  7  5  8  9  6 10  7  5  8
TYPE ASSIGNMENTS      9  6 10  7  5  8  9  6 10  7 11 14 15 17 20 18 12 16 19 13
TYPE ASSIGNMENTS     11 14 15 17 20 18 12 16 19 13 21 24 25 30 33 31 26 34 35 28
TYPE ASSIGNMENTS     22 27 32 29 23
EXPONENTS  2.3909965E+07 3.3835871E+06 7.1083486E+05 1.8771579E+05 5.7916329E+04
EXPONENTS  2.0090557E+04 7.6104447E+03 3.0646760E+03 1.3486347E+03 6.1596778E+02
EXPONENTS  2.8591859E+02 3.3271928E+03 9.9645510E+02 3.8986928E+02 1.7153998E+02
EXPONENTS  8.9601079E+01 3.6585762E+01 1.7705828E+01 8.3844730E+00 4.0034794E+00
EXPONENTS  1.8625231E+00 5.9668906E-01 2.8620435E-01 1.2151866E-01 1.2476890E+05
EXPONENTS  1.2476890E+05 1.2476890E+05 2.9563625E+04 2.9563625E+04 2.9563625E+04
EXPONENTS  8.0557659E+03 8.0557659E+03 8.0557659E+03 2.5243748E+03 2.5243748E+03
EXPONENTS  2.5243748E+03 9.0970100E+02 9.0970100E+02 9.0970100E+02 3.7764378E+02
EXPONENTS  3.7764378E+02 3.7764378E+02 1.6838204E+02 1.6838204E+02 1.6838204E+02
EXPONENTS  7.9874036E+01 7.9874036E+01 7.9874036E+01 3.9576752E+01 3.9576752E+01
EXPONENTS  3.9576752E+01 2.0330183E+01 2.0330183E+01 2.0330183E+01 1.0634056E+01
EXPONENTS  1.0634056E+01 1.0634056E+01 3.4000000E+01 3.4000000E+01 3.4000000E+01
EXPONENTS  2.4669245E+02 2.4669245E+02 2.4669245E+02 9.1308079E+01 9.1308079E+01
EXPONENTS  9.1308079E+01 4.1607295E+01 4.1607295E+01 4.1607295E+01 1.0375584E+01
EXPONENTS  1.0375584E+01 1.0375584E+01 5.1920210E+00 5.1920210E+00 5.1920210E+00
EXPONENTS  2.6034030E+00 2.6034030E+00 2.6034030E+00 1.2627204E+00 1.2627204E+00
EXPONENTS  1.2627204E+00 5.3649564E-01 5.3649564E-01 5.3649564E-01 2.1994972E-01
EXPONENTS  2.1994972E-01 2.1994972E-01 8.5848666E-02 8.5848666E-02 8.5848666E-02
EXPONENTS  6.1256245E+02 6.1256245E+02 6.1256245E+02 6.1256245E+02 6.1256245E+02
EXPONENTS  6.1256245E+02 1.8292919E+02 1.8292919E+02 1.8292919E+02 1.8292919E+02
EXPONENTS  1.8292919E+02 1.8292919E+02 7.0881944E+01 7.0881944E+01 7.0881944E+01
EXPONENTS  7.0881944E+01 7.0881944E+01 7.0881944E+01 3.0768374E+01 3.0768374E+01
EXPONENTS  3.0768374E+01 3.0768374E+01 3.0768374E+01 3.0768374E+01 1.4285338E+01
EXPONENTS  1.4285338E+01 1.4285338E+01 1.4285338E+01 1.4285338E+01 1.4285338E+01
EXPONENTS  6.8237514E+00 6.8237514E+00 6.8237514E+00 6.8237514E+00 6.8237514E+00
EXPONENTS  6.8237514E+00 3.2753072E+00 3.2753072E+00 3.2753072E+00 3.2753072E+00
EXPONENTS  3.2753072E+00 3.2753072E+00 1.5609997E+00 1.5609997E+00 1.5609997E+00
EXPONENTS  1.5609997E+00 1.5609997E+00 1.5609997E+00 6.9960701E-01 6.9960701E-01
EXPONENTS  6.9960701E-01 6.9960701E-01 6.9960701E-01 6.9960701E-01 2.3000000E-01
EXPONENTS  2.3000000E-01 2.3000000E-01 2.3000000E-01 2.3000000E-01 2.3000000E-01
EXPONENTS  8.2570000E-01 8.2570000E-01 8.2570000E-01 8.2570000E-01 8.2570000E-01
EXPONENTS  8.2570000E-01 8.2570000E-01 8.2570000E-01 8.2570000E-01 8.2570000E-01
EXPONENTS  3.4070000E-01 3.4070000E-01 3.4070000E-01 3.4070000E-01 3.4070000E-01
EXPONENTS  3.4070000E-01 3.4070000E-01 3.4070000E-01 3.4070000E-01 3.4070000E-01
EXPONENTS  6.4910000E-01 6.4910000E-01 6.4910000E-01 6.4910000E-01 6.4910000E-01
EXPONENTS  6.4910000E-01 6.4910000E-01 6.4910000E-01 6.4910000E-01 6.4910000E-01
EXPONENTS  6.4910000E-01 6.4910000E-01 6.4910000E-01 6.4910000E-01 6.4910000E-01
MO    1                     OCC NO =   1.00000000 ORB. ENERGY = -491.20978748
  1.97210157E+01  1.47303174E+01  1.23631602E+01  1.16406852E+01  1.19968232E+01
  1.34685633E+01  1.58224962E+01  1.80928666E+01  1.92678879E+01  1.78539632E+01
  9.92276976E+00  9.91041526E-01  3.13221144E+00  6.63736829E+00  8.14627962E+00
  3.03322463E+00  1.25938015E-01 -2.49348455E-03 -1.52968200E-03  7.90839828E-04
 -2.38805571E-04  4.85537353E-05 -1.72430914E-05  2.43158645E-06  0.00000000E+00
  0.00000000E+00  0.00000000E+00  0.00000000E+00  0.00000000E+00  0.00000000E+00
  0.00000000E+00  0.00000000E+00  0.00000000E+00  0.00000000E+00  0.00000000E+00
  0.00000000E+00  0.00000000E+00  0.00000000E+00  0.00000000E+00  0.00000000E+00
  0.00000000E+00  0.00000000E+00  0.00000000E+00  0.00000000E+00  0.00000000E+00
  0.00000000E+00  0.00000000E+00  0.00000000E+00  0.00000000E+00  0.00000000E+00
  0.00000000E+00  0.00000000E+00  0.00000000E+00  0.00000000E+00  0.00000000E+00
  0.00000000E+00  0.00000000E+00  0.00000000E+00  0.00000000E+00  0.00000000E+00
  0.00000000E+00  0.00000000E+00  0.00000000E+00  0.00000000E+00  0.00000000E+00
  0.00000000E+00  0.00000000E+00  0.00000000E+00  0.00000000E+00  0.00000000E+00
  0.00000000E+00  0.00000000E+00  0.00000000E+00  0.00000000E+00  0.00000000E+00
  0.00000000E+00  0.00000000E+00  0.00000000E+00  0.00000000E+00  0.00000000E+00
  0.00000000E+00  0.00000000E+00  0.00000000E+00  0.00000000E+00  0.00000000E+00
  0.00000000E+00  0.00000000E+00  0.00000000E+00  0.00000000E+00  0.00000000E+00
  0.00000000E+00  0.00000000E+00  0.00000000E+00  0.00000000E+00  0.00000000E+00
  0.00000000E+00  0.00000000E+00  0.00000000E+00  0.00000000E+00  0.00000000E+00
  0.00000000E+00  0.00000000E+00  0.00000000E+00  0.00000000E+00  0.00000000E+00
  0.00000000E+00  0.00000000E+00  0.00000000E+00  0.00000000E+00  0.00000000E+00
  0.00000000E+00  0.00000000E+00  0.00000000E+00  0.00000000E+00  0.00000000E+00
  0.00000000E+00  0.00000000E+00  0.00000000E+00  0.00000000E+00  0.00000000E+00
  0.00000000E+00  0.00000000E+00  0.00000000E+00  0.00000000E+00  0.00000000E+00
  0.00000000E+00  0.00000000E+00  0.00000000E+00  0.00000000E+00  0.00000000E+00
  0.00000000E+00  0.00000000E+00  0.00000000E+00  0.00000000E+00  0.00000000E+00
  0.00000000E+00  0.00000000E+00  0.00000000E+00  0.00000000E+00  0.00000000E+00
  0.00000000E+00  0.00000000E+00  0.00000000E+00  0.00000000E+00  0.00000000E+00
  0.00000000E+00  0.00000000E+00  0.00000000E+00  0.00000000E+00  0.00000000E+00
  0.00000000E+00  0.00000000E+00  0.00000000E+00  0.00000000E+00  0.00000000E+00
  0.00000000E+00  0.00000000E+00  0.00000000E+00  0.00000000E+00  0.00000000E+00
  0.00000000E+00  0.00000000E+00  0.00000000E+00  0.00000000E+00  0.00000000E+00
  0.00000000E+00  0.00000000E+00  0.00000000E+00  0.00000000E+00  0.00000000E+00
  0.00000000E+00  0.00000000E+00  0.00000000E+00  0.00000000E+00  0.00000000E+00
  0.00000000E+00  0.00000000E+00  0.00000000E+00  0.00000000E+00  0.00000000E+00
  0.00000000E+00  0.00000000E+00  0.00000000E+00  0.00000000E+00  0.00000000E+00
MO    2                     OCC NO =   1.00000000 ORB. ENERGY = -64.50781438
 -6.47687383E+00 -4.83780393E+00 -4.06037043E+00 -3.82309160E+00 -3.94005620E+00
 -4.42341241E+00 -5.19650272E+00 -5.94214905E+00 -6.32805536E+00 -5.86368718E+00
 -3.25888529E+00 -7.39136503E-01 -2.33605934E+00 -4.95026803E+00 -6.07564110E+00
 -1.03922448E+00  4.53880966E+00  3.45478526E+00  5.93102535E-01 -5.41089896E-03
  3.71056319E-03 -6.23837189E-04  2.13496766E-04 -3.02342387E-05  0.00000000E+00
  0.00000000E+00  0.00000000E+00  0.00000000E+00  0.00000000E+00  0.00000000E+00
  0.00000000E+00  0.00000000E+00  0.00000000E+00  0.00000000E+00  0.00000000E+00
  0.00000000E+00  0.00000000E+00  0.00000000E+00  0.00000000E+00  0.00000000E+00
  0.00000000E+00  0.00000000E+00  0.00000000E+00  0.00000000E+00  0.00000000E+00
  0.00000000E+00  0.00000000E+00  0.00000000E+00  0.00000000E+00  0.00000000E+00
  0.00000000E+00  0.00000000E+00  0.00000000E+00  0.00000000E+00  0.00000000E+00
  0.00000000E+00  0.00000000E+00  0.00000000E+00  0.00000000E+00  0.00000000E+00
  0.00000000E+00  0.00000000E+00  0.00000000E+00  0.00000000E+00  0.00000000E+00
  0.00000000E+00  0.00000000E+00  0.00000000E+00  0.00000000E+00  0.00000000E+00
  0.00000000E+00  0.00000000E+00  0.00000000E+00  0.00000000E+00  0.00000000E+00
  0.00000000E+00  0.00000000E+00  0.00000000E+00  0.00000000E+00  0.00000000E+00
  0.00000000E+00  0.00000000E+00  0.00000000E+00  0.00000000E+00  0.00000000E+00
  0.00000000E+00  0.00000000E+00  0.00000000E+00  0.00000000E+00  0.00000000E+00
  0.00000000E+00  0.00000000E+00  0.00000000E+00  0.00000000E+00  0.00000000E+00
  0.00000000E+00  0.00000000E+00  0.00000000E+00  0.00000000E+00  0.00000000E+00
  0.00000000E+00  0.00000000E+00  0.00000000E+00  0.00000000E+00  0.00000000E+00
  0.00000000E+00  0.00000000E+00  0.00000000E+00  0.00000000E+00  0.00000000E+00
  0.00000000E+00  0.00000000E+00  0.00000000E+00  0.00000000E+00  0.00000000E+00
  0.00000000E+00  0.00000000E+00  0.00000000E+00  0.00000000E+00  0.00000000E+00
  0.00000000E+00  0.00000000E+00  0.00000000E+00  0.00000000E+00  0.00000000E+00
  0.00000000E+00  0.00000000E+00  0.00000000E+00  0.00000000E+00  0.00000000E+00
  0.00000000E+00  0.00000000E+00  0.00000000E+00  0.00000000E+00  0.00000000E+00
  0.00000000E+00  0.00000000E+00  0.00000000E+00  0.00000000E+00  0.00000000E+00
  0.00000000E+00  0.00000000E+00  0.00000000E+00  0.00000000E+00  0.00000000E+00
  0.00000000E+00  0.00000000E+00  0.00000000E+00  0.00000000E+00  0.00000000E+00
  0.00000000E+00  0.00000000E+00  0.00000000E+00  0.00000000E+00  0.00000000E+00
  0.00000000E+00  0.00000000E+00  0.00000000E+00  0.00000000E+00  0.00000000E+00
  0.00000000E+00  0.00000000E+00  0.00000000E+00  0.00000000E+00  0.00000000E+00
  0.00000000E+00  0.00000000E+00  0.00000000E+00  0.00000000E+00  0.00000000E+00
  0.00000000E+00  0.00000000E+00  0.00000000E+00  0.00000000E+00  0.00000000E+00
  0.00000000E+00  0.00000000E+00  0.00000000E+00  0.00000000E+00  0.00000000E+00
  0.00000000E+00  0.00000000E+00  0.00000000E+00  0.00000000E+00  0.00000000E+00
MO    3                     OCC NO =   1.00000000 ORB. ENERGY =  -9.12033265
  2.58938393E+00  1.93410155E+00  1.62329207E+00  1.52843057E+00  1.57519174E+00
  1.76843231E+00  2.07750544E+00  2.37560675E+00  2.52988791E+00  2.34423855E+00
  1.30286700E+00  3.27418665E-01  1.03481485E+00  2.19284279E+00  2.69135443E+00
  4.69175981E-01 -2.84921378E+00 -3.12152098E+00 -1.22858852E-01  1.40211337E+00
  5.93369274E-01  2.35768867E-02 -3.94851293E-03  4.65542207E-04  0.00000000E+00
  0.00000000E+00  0.00000000E+00  0.00000000E+00  0.00000000E+00  0.00000000E+00
  0.00000000E+00  0.00000000E+00  0.00000000E+00  0.00000000E+00  0.00000000E+00
  0.00000000E+00  0.00000000E+00  0.00000000E+00  0.00000000E+00  0.00000000E+00
  0.00000000E+00  0.00000000E+00  0.00000000E+00  0.00000000E+00  0.00000000E+00
  0.00000000E+00  0.00000000E+00  0.00000000E+00  0.00000000E+00  0.00000000E+00
  0.00000000E+00  0.00000000E+00  0.00000000E+00  0.00000000E+00  0.00000000E+00
  0.00000000E+00  0.00000000E+00  0.00000000E+00  0.00000000E+00  0.00000000E+00
  0.00000000E+00  0.00000000E+00  0.00000000E+00  0.00000000E+00  0.00000000E+00
  0.00000000E+00  0.00000000E+00  0.00000000E+00  0.00000000E+00  0.00000000E+00
  0.00000000E+00  0.00000000E+00  0.00000000E+00  0.00000000E+00  0.00000000E+00
  0.00000000E+00  0.00000000E+00  0.00000000E+00  0.00000000E+00  0.00000000E+00
  0.00000000E+00  0.00000000E+00  0.00000000E+00  0.00000000E+00  0.00000000E+00
  0.00000000E+00  0.00000000E+00  0.00000000E+00  0.00000000E+00  0.00000000E+00
  0.00000000E+00  0.00000000E+00  0.00000000E+00  0.00000000E+00  0.00000000E+00
  0.00000000E+00  0.00000000E+00  0.00000000E+00  0.00000000E+00  0.00000000E+00
  0.00000000E+00  0.00000000E+00  0.00000000E+00  0.00000000E+00  0.00000000E+00
  0.00000000E+00  0.00000000E+00  0.00000000E+00  0.00000000E+00  0.00000000E+00
  0.00000000E+00  0.00000000E+00  0.00000000E+00  0.00000000E+00  0.00000000E+00
  0.00000000E+00  0.00000000E+00  0.00000000E+00  0.00000000E+00  0.00000000E+00
  0.00000000E+00  0.00000000E+00  0.00000000E+00  0.00000000E+00  0.00000000E+00
  0.00000000E+00  0.00000000E+00  0.00000000E+00  0.00000000E+00  0.00000000E+00
  0.00000000E+00  0.00000000E+00  0.00000000E+00  0.00000000E+00  0.00000000E+00
  0.00000000E+00  0.00000000E+00  0.00000000E+00  0.00000000E+00  0.00000000E+00
  0.00000000E+00  0.00000000E+00  0.00000000E+00  0.00000000E+00  0.00000000E+00
  0.00000000E+00  0.00000000E+00  0.00000000E+00  0.00000000E+00  0.00000000E+00
  0.00000000E+00  0.00000000E+00  0.00000000E+00  0.00000000E+00  0.00000000E+00
  0.00000000E+00  0.00000000E+00  0.00000000E+00  0.00000000E+00  0.00000000E+00
  0.00000000E+00  0.00000000E+00  0.00000000E+00  0.00000000E+00  0.00000000E+00
  0.00000000E+00  0.00000000E+00  0.00000000E+00  0.00000000E+00  0.00000000E+00
  0.00000000E+00  0.00000000E+00  0.00000000E+00  0.00000000E+00  0.00000000E+00
  0.00000000E+00  0.00000000E+00  0.00000000E+00  0.00000000E+00  0.00000000E+00
  0.00000000E+00  0.00000000E+00  0.00000000E+00  0.00000000E+00  0.00000000E+00
MO    4                     OCC NO =   1.00000000 ORB. ENERGY =  -0.84494494
 -8.37637051E-01 -6.25660453E-01 -5.25117024E-01 -4.94430378E-01 -5.09557102E-01
 -5.72068288E-01 -6.72050025E-01 -7.68482501E-01 -8.18390750E-01 -7.58335235E-01
 -4.21463059E-01 -1.07568878E-01 -3.39974119E-01 -7.20428196E-01 -8.84207305E-01
 -1.54262341E-01  9.84417023E-01  1.15179532E+00  3.57145057E-02 -7.25964343E-01
 -4.88575357E-01  1.68422130E-01  1.94239375E-01  3.15876489E-02  0.00000000E+00
  0.00000000E+00  0.00000000E+00  0.00000000E+00  0.00000000E+00  0.00000000E+00
  0.00000000E+00  0.00000000E+00  0.00000000E+00  0.00000000E+00  0.00000000E+00
  0.00000000E+00  0.00000000E+00  0.00000000E+00  0.00000000E+00  0.00000000E+00
  0.00000000E+00  0.00000000E+00  0.00000000E+00  0.00000000E+00  0.00000000E+00
  0.00000000E+00  0.00000000E+00  0.00000000E+00  0.00000000E+00  0.00000000E+00
  0.00000000E+00  0.00000000E+00  0.00000000E+00  0.00000000E+00  0.00000000E+00
  0.00000000E+00  0.00000000E+00  0.00000000E+00  0.00000000E+00  0.00000000E+00
  0.00000000E+00  0.00000000E+00  0.00000000E+00  0.00000000E+00  0.00000000E+00
  0.00000000E+00  0.00000000E+00  0.00000000E+00  0.00000000E+00  0.00000000E+00
  0.00000000E+00  0.00000000E+00  0.00000000E+00  0.00000000E+00  0.00000000E+00
  0.00000000E+00  0.00000000E+00  0.00000000E+00  0.00000000E+00  0.00000000E+00
  0.00000000E+00  0.00000000E+00  0.00000000E+00  0.00000000E+00  0.00000000E+00
  0.00000000E+00  0.00000000E+00  0.00000000E+00  0.00000000E+00  0.00000000E+00
  0.00000000E+00  0.00000000E+00  0.00000000E+00  0.00000000E+00  0.00000000E+00
  0.00000000E+00  0.00000000E+00  0.00000000E+00  0.00000000E+00  0.00000000E+00
  0.00000000E+00  0.00000000E+00  0.00000000E+00  0.00000000E+00  0.00000000E+00
  0.00000000E+00  0.00000000E+00  0.00000000E+00  0.00000000E+00  0.00000000E+00
  0.00000000E+00  0.00000000E+00  0.00000000E+00  0.00000000E+00  0.00000000E+00
  0.00000000E+00  0.00000000E+00  0.00000000E+00  0.00000000E+00  0.00000000E+00
  0.00000000E+00  0.00000000E+00  0.00000000E+00  0.00000000E+00  0.00000000E+00
  0.00000000E+00  0.00000000E+00  0.00000000E+00  0.00000000E+00  0.00000000E+00
  0.00000000E+00  0.00000000E+00  0.00000000E+00  0.00000000E+00  0.00000000E+00
  0.00000000E+00  0.00000000E+00  0.00000000E+00  0.00000000E+00  0.00000000E+00
  0.00000000E+00  0.00000000E+00  0.00000000E+00  0.00000000E+00  0.00000000E+00
  0.00000000E+00  0.00000000E+00  0.00000000E+00  0.00000000E+00  0.00000000E+00
  0.00000000E+00  0.00000000E+00  0.00000000E+00  0.00000000E+00  0.00000000E+00
  0.00000000E+00  0.00000000E+00  0.00000000E+00  0.00000000E+00  0.00000000E+00
  0.00000000E+00  0.00000000E+00  0.00000000E+00  0.00000000E+00  0.00000000E+00
  0.00000000E+00  0.00000000E+00  0.00000000E+00  0.00000000E+00  0.00000000E+00
  0.00000000E+00  0.00000000E+00  0.00000000E+00  0.00000000E+00  0.00000000E+00
  0.00000000E+00  0.00000000E+00  0.00000000E+00  0.00000000E+00  0.00000000E+00
  0.00000000E+00  0.00000000E+00  0.00000000E+00  0.00000000E+00  0.00000000E+00
MO    5                     OCC NO =   1.00000000 ORB. ENERGY = -56.85524086
  0.00000000E+00  0.00000000E+00  0.00000000E+00  0.00000000E+00  0.00000000E+00
  0.00000000E+00  0.00000000E+00  0.00000000E+00  0.00000000E+00  0.00000000E+00
  0.00000000E+00  0.00000000E+00  0.00000000E+00  0.00000000E+00  0.00000000E+00
  0.00000000E+00  0.00000000E+00  0.00000000E+00  0.00000000E+00  0.00000000E+00
  0.00000000E+00  0.00000000E+00  0.00000000E+00  0.00000000E+00  1.36005167E+02
  0.00000000E+00  0.00000000E+00  7.90023082E+01  0.00000000E+00  0.00000000E+00
  7.63634260E+01  0.00000000E+00  0.00000000E+00  8.44871152E+01  0.00000000E+00
  0.00000000E+00  9.42528039E+01  0.00000000E+00  0.00000000E+00  1.04566834E+02
  0.00000000E+00  0.00000000E+00  1.06043903E+02  0.00000000E+00  0.00000000E+00
  8.59391051E+01  0.00000000E+00  0.00000000E+00  5.07935958E+01  0.00000000E+00
  0.00000000E+00  1.75135317E+01  0.00000000E+00  0.00000000E+00  2.65663826E+00
  0.00000000E+00  0.00000000E+00 -2.70909538E-01  0.00000000E+00  0.00000000E+00
 -6.38091503E-02  0.00000000E+00  0.00000000E+00 -1.24712400E-01  0.00000000E+00
  0.00000000E+00 -1.16203426E-01  0.00000000E+00  0.00000000E+00  1.65547080E-01
  0.00000000E+00  0.00000000E+00  1.55710645E-01  0.00000000E+00  0.00000000E+00
 -1.91121295E-02  0.00000000E+00  0.00000000E+00  5.16382387E-03  0.00000000E+00
  0.00000000E+00 -8.40407635E-04  0.00000000E+00  0.00000000E+00  1.20094267E-04
  0.00000000E+00  0.00000000E+00 -1.09377596E-05  0.00000000E+00  0.00000000E+00
  0.00000000E+00  0.00000000E+00  0.00000000E+00  0.00000000E+00  0.00000000E+00
  0.00000000E+00  0.00000000E+00  0.00000000E+00  0.00000000E+00  0.00000000E+00
  0.00000000E+00  0.00000000E+00  0.00000000E+00  0.00000000E+00  0.00000000E+00
  0.00000000E+00  0.00000000E+00  0.00000000E+00  0.00000000E+00  0.00000000E+00
  0.00000000E+00  0.00000000E+00  0.00000000E+00  0.00000000E+00  0.00000000E+00
  0.00000000E+00  0.00000000E+00  0.00000000E+00  0.00000000E+00  0.00000000E+00
  0.00000000E+00  0.00000000E+00  0.00000000E+00  0.00000000E+00  0.00000000E+00
  0.00000000E+00  0.00000000E+00  0.00000000E+00  0.00000000E+00  0.00000000E+00
  0.00000000E+00  0.00000000E+00  0.00000000E+00  0.00000000E+00  0.00000000E+00
  0.00000000E+00  0.00000000E+00  0.00000000E+00  0.00000000E+00  0.00000000E+00
  0.00000000E+00  0.00000000E+00  0.00000000E+00  0.00000000E+00  0.00000000E+00
  0.00000000E+00  0.00000000E+00  0.00000000E+00  0.00000000E+00  0.00000000E+00
  0.00000000E+00  0.00000000E+00  0.00000000E+00  0.00000000E+00  0.00000000E+00
  0.00000000E+00  0.00000000E+00  0.00000000E+00  0.00000000E+00  0.00000000E+00
  0.00000000E+00  0.00000000E+00  0.00000000E+00  0.00000000E+00  0.00000000E+00
  0.00000000E+00  0.00000000E+00  0.00000000E+00  0.00000000E+00  0.00000000E+00
  0.00000000E+00  0.00000000E+00  0.00000000E+00  0.00000000E+00  0.00000000E+00
  0.00000000E+00  0.00000000E+00  0.00000000E+00  0.00000000E+00  0.00000000E+00
  0.00000000E+00  0.00000000E+00  0.00000000E+00  0.00000000E+00  0.00000000E+00
MO    6                     OCC NO =   1.00000000 ORB. ENERGY = -56.85524086
  0.00000000E+00  0.00000000E+00  0.00000000E+00  0.00000000E+00  0.00000000E+00
  0.00000000E+00  0.00000000E+00  0.00000000E+00  0.00000000E+00  0.00000000E+00
  0.00000000E+00  0.00000000E+00  0.00000000E+00  0.00000000E+00  0.00000000E+00
  0.00000000E+00  0.00000000E+00  0.00000000E+00  0.00000000E+00  0.00000000E+00
  0.00000000E+00  0.00000000E+00  0.00000000E+00  0.00000000E+00  0.00000000E+00
  1.36005167E+02  0.00000000E+00  0.00000000E+00  7.90023082E+01  0.00000000E+00
  0.00000000E+00  7.63634260E+01  0.00000000E+00  0.00000000E+00  8.44871152E+01
  0.00000000E+00  0.00000000E+00  9.42528039E+01  0.00000000E+00  0.00000000E+00
  1.04566834E+02  0.00000000E+00  0.00000000E+00  1.06043903E+02  0.00000000E+00
  0.00000000E+00  8.59391051E+01  0.00000000E+00  0.00000000E+00  5.07935958E+01
  0.00000000E+00  0.00000000E+00  1.75135317E+01  0.00000000E+00  0.00000000E+00
  2.65663826E+00  0.00000000E+00  0.00000000E+00 -2.70909538E-01  0.00000000E+00
  0.00000000E+00 -6.38091503E-02  0.00000000E+00  0.00000000E+00 -1.24712400E-01
  0.00000000E+00  0.00000000E+00 -1.16203426E-01  0.00000000E+00  0.00000000E+00
  1.65547080E-01  0.00000000E+00  0.00000000E+00  1.55710645E-01  0.00000000E+00
  0.00000000E+00 -1.91121295E-02  0.00000000E+00  0.00000000E+00  5.16382387E-03
  0.00000000E+00  0.00000000E+00 -8.40407635E-04  0.00000000E+00  0.00000000E+00
  1.20094267E-04  0.00000000E+00  0.00000000E+00 -1.09377596E-05  0.00000000E+00
  0.00000000E+00  0.00000000E+00  0.00000000E+00  0.00000000E+00  0.00000000E+00
  0.00000000E+00  0.00000000E+00  0.00000000E+00  0.00000000E+00  0.00000000E+00
  0.00000000E+00  0.00000000E+00  0.00000000E+00  0.00000000E+00  0.00000000E+00
  0.00000000E+00  0.00000000E+00  0.00000000E+00  0.00000000E+00  0.00000000E+00
  0.00000000E+00  0.00000000E+00  0.00000000E+00  0.00000000E+00  0.00000000E+00
  0.00000000E+00  0.00000000E+00  0.00000000E+00  0.00000000E+00  0.00000000E+00
  0.00000000E+00  0.00000000E+00  0.00000000E+00  0.00000000E+00  0.00000000E+00
  0.00000000E+00  0.00000000E+00  0.00000000E+00  0.00000000E+00  0.00000000E+00
  0.00000000E+00  0.00000000E+00  0.00000000E+00  0.00000000E+00  0.00000000E+00
  0.00000000E+00  0.00000000E+00  0.00000000E+00  0.00000000E+00  0.00000000E+00
  0.00000000E+00  0.00000000E+00  0.00000000E+00  0.00000000E+00  0.00000000E+00
  0.00000000E+00  0.00000000E+00  0.00000000E+00  0.00000000E+00  0.00000000E+00
  0.00000000E+00  0.00000000E+00  0.00000000E+00  0.00000000E+00  0.00000000E+00
  0.00000000E+00  0.00000000E+00  0.00000000E+00  0.00000000E+00  0.00000000E+00
  0.00000000E+00  0.00000000E+00  0.00000000E+00  0.00000000E+00  0.00000000E+00
  0.00000000E+00  0.00000000E+00  0.00000000E+00  0.00000000E+00  0.00000000E+00
  0.00000000E+00  0.00000000E+00  0.00000000E+00  0.00000000E+00  0.00000000E+00
  0.00000000E+00  0.00000000E+00  0.00000000E+00  0.00000000E+00  0.00000000E+00
  0.00000000E+00  0.00000000E+00  0.00000000E+00  0.00000000E+00  0.00000000E+00
MO    7                     OCC NO =   1.00000000 ORB. ENERGY = -56.85524086
  0.00000000E+00  0.00000000E+00  0.00000000E+00  0.00000000E+00  0.00000000E+00
  0.00000000E+00  0.00000000E+00  0.00000000E+00  0.00000000E+00  0.00000000E+00
  0.00000000E+00  0.00000000E+00  0.00000000E+00  0.00000000E+00  0.00000000E+00
  0.00000000E+00  0.00000000E+00  0.00000000E+00  0.00000000E+00  0.00000000E+00
  0.00000000E+00  0.00000000E+00  0.00000000E+00  0.00000000E+00  0.00000000E+00
  0.00000000E+00  1.36005167E+02  0.00000000E+00  0.00000000E+00  7.90023082E+01
  0.00000000E+00  0.00000000E+00  7.63634260E+01  0.00000000E+00  0.00000000E+00
  8.44871152E+01  0.00000000E+00  0.00000000E+00  9.42528039E+01  0.00000000E+00
  0.00000000E+00  1.04566834E+02  0.00000000E+00  0.00000000E+00  1.06043903E+02
  0.00000000E+00  0.00000000E+00  8.59391051E+01  0.00000000E+00  0.00000000E+00
  5.07935958E+01  0.00000000E+00  0.00000000E+00  1.75135317E+01  0.00000000E+00
  0.00000000E+00  2.65663826E+00  0.00000000E+00  0.00000000E+00 -2.70909538E-01
  0.00000000E+00  0.00000000E+00 -6.38091503E-02  0.00000000E+00  0.00000000E+00
 -1.24712400E-01  0.00000000E+00  0.00000000E+00 -1.16203426E-01  0.00000000E+00
  0.00000000E+00  1.65547080E-01  0.00000000E+00  0.00000000E+00  1.55710645E-01
  0.00000000E+00  0.00000000E+00 -1.91121295E-02  0.00000000E+00  0.00000000E+00
  5.16382387E-03  0.00000000E+00  0.00000000E+00 -8.40407635E-04  0.00000000E+00
  0.00000000E+00  1.20094267E-04  0.00000000E+00  0.00000000E+00 -1.09377596E-05
  0.00000000E+00  0.00000000E+00  0.00000000E+00  0.00000000E+00  0.00000000E+00
  0.00000000E+00  0.00000000E+00  0.00000000E+00  0.00000000E+00  0.00000000E+00
  0.00000000E+00  0.00000000E+00  0.00000000E+00  0.00000000E+00  0.00000000E+00
  0.00000000E+00  0.00000000E+00  0.00000000E+00  0.00000000E+00  0.00000000E+00
  0.00000000E+00  0.00000000E+00  0.00000000E+00  0.00000000E+00  0.00000000E+00
  0.00000000E+00  0.00000000E+00  0.00000000E+00  0.00000000E+00  0.00000000E+00
  0.00000000E+00  0.00000000E+00  0.00000000E+00  0.00000000E+00  0.00000000E+00
  0.00000000E+00  0.00000000E+00  0.00000000E+00  0.00000000E+00  0.00000000E+00
  0.00000000E+00  0.00000000E+00  0.00000000E+00  0.00000000E+00  0.00000000E+00
  0.00000000E+00  0.00000000E+00  0.00000000E+00  0.00000000E+00  0.00000000E+00
  0.00000000E+00  0.00000000E+00  0.00000000E+00  0.00000000E+00  0.00000000E+00
  0.00000000E+00  0.00000000E+00  0.00000000E+00  0.00000000E+00  0.00000000E+00
  0.00000000E+00  0.00000000E+00  0.00000000E+00  0.00000000E+00  0.00000000E+00
  0.00000000E+00  0.00000000E+00  0.00000000E+00  0.00000000E+00  0.00000000E+00
  0.00000000E+00  0.00000000E+00  0.00000000E+00  0.00000000E+00  0.00000000E+00
  0.00000000E+00  0.00000000E+00  0.00000000E+00  0.00000000E+00  0.00000000E+00
  0.00000000E+00  0.00000000E+00  0.00000000E+00  0.00000000E+00  0.00000000E+00
  0.00000000E+00  0.00000000E+00  0.00000000E+00  0.00000000E+00  0.00000000E+00
  0.00000000E+00  0.00000000E+00  0.00000000E+00  0.00000000E+00  0.00000000E+00
MO    8                     OCC NO =   1.00000000 ORB. ENERGY =  -6.68089175
  0.00000000E+00  0.00000000E+00  0.00000000E+00  0.00000000E+00  0.00000000E+00
  0.00000000E+00  0.00000000E+00  0.00000000E+00  0.00000000E+00  0.00000000E+00
  0.00000000E+00  0.00000000E+00  0.00000000E+00  0.00000000E+00  0.00000000E+00
  0.00000000E+00  0.00000000E+00  0.00000000E+00  0.00000000E+00  0.00000000E+00
  0.00000000E+00  0.00000000E+00  0.00000000E+00  0.00000000E+00 -5.58266893E+01
  0.00000000E+00  0.00000000E+00 -3.24284542E+01  0.00000000E+00  0.00000000E+00
 -3.13452597E+01  0.00000000E+00  0.00000000E+00 -3.46798291E+01  0.00000000E+00
  0.00000000E+00 -3.86883979E+01  0.00000000E+00  0.00000000E+00 -4.29220472E+01
  0.00000000E+00  0.00000000E+00 -4.35283465E+01  0.00000000E+00  0.00000000E+00
 -3.52758343E+01  0.00000000E+00  0.00000000E+00 -2.08494895E+01  0.00000000E+00
  0.00000000E+00 -7.18886289E+00  0.00000000E+00  0.00000000E+00 -1.09048298E+00
  0.00000000E+00  0.00000000E+00  3.93788822E-01  0.00000000E+00  0.00000000E+00
 -2.01420246E+00  0.00000000E+00  0.00000000E+00 -3.93667712E+00  0.00000000E+00
  0.00000000E+00 -3.66808249E+00  0.00000000E+00  0.00000000E+00  5.22566644E+00
  0.00000000E+00  0.00000000E+00  4.91516909E+00  0.00000000E+00  0.00000000E+00
  1.91918909E+00  0.00000000E+00  0.00000000E+00  2.82239372E-01  0.00000000E+00
  0.00000000E+00  3.88316663E-03  0.00000000E+00  0.00000000E+00  1.80803466E-04
  0.00000000E+00  0.00000000E+00 -1.79806172E-05  0.00000000E+00  0.00000000E+00
  0.00000000E+00  0.00000000E+00  0.00000000E+00  0.00000000E+00  0.00000000E+00
  0.00000000E+00  0.00000000E+00  0.00000000E+00  0.00000000E+00  0.00000000E+00
  0.00000000E+00  0.00000000E+00  0.00000000E+00  0.00000000E+00  0.00000000E+00
  0.00000000E+00  0.00000000E+00  0.00000000E+00  0.00000000E+00  0.00000000E+00
  0.00000000E+00  0.00000000E+00  0.00000000E+00  0.00000000E+00  0.00000000E+00
  0.00000000E+00  0.00000000E+00  0.00000000E+00  0.00000000E+00  0.00000000E+00
  0.00000000E+00  0.00000000E+00  0.00000000E+00  0.00000000E+00  0.00000000E+00
  0.00000000E+00  0.00000000E+00  0.00000000E+00  0.00000000E+00  0.00000000E+00
  0.00000000E+00  0.00000000E+00  0.00000000E+00  0.00000000E+00  0.00000000E+00
  0.00000000E+00  0.00000000E+00  0.00000000E+00  0.00000000E+00  0.00000000E+00
  0.00000000E+00  0.00000000E+00  0.00000000E+00  0.00000000E+00  0.00000000E+00
  0.00000000E+00  0.00000000E+00  0.00000000E+00  0.00000000E+00  0.00000000E+00
  0.00000000E+00  0.00000000E+00  0.00000000E+00  0.00000000E+00  0.00000000E+00
  0.00000000E+00  0.00000000E+00  0.00000000E+00  0.00000000E+00  0.00000000E+00
  0.00000000E+00  0.00000000E+00  0.00000000E+00  0.00000000E+00  0.00000000E+00
  0.00000000E+00  0.00000000E+00  0.00000000E+00  0.00000000E+00  0.00000000E+00
  0.00000000E+00  0.00000000E+00  0.00000000E+00  0.00000000E+00  0.00000000E+00
  0.00000000E+00  0.00000000E+00  0.00000000E+00  0.00000000E+00  0.00000000E+00
  0.00000000E+00  0.00000000E+00  0.00000000E+00  0.00000000E+00  0.00000000E+00
MO    9                     OCC NO =   1.00000000 ORB. ENERGY =  -6.68089175
  0.00000000E+00  0.00000000E+00  0.00000000E+00  0.00000000E+00  0.00000000E+00
  0.00000000E+00  0.00000000E+00  0.00000000E+00  0.00000000E+00  0.00000000E+00
  0.00000000E+00  0.00000000E+00  0.00000000E+00  0.00000000E+00  0.00000000E+00
  0.00000000E+00  0.00000000E+00  0.00000000E+00  0.00000000E+00  0.00000000E+00
  0.00000000E+00  0.00000000E+00  0.00000000E+00  0.00000000E+00  0.00000000E+00
 -5.58266893E+01  0.00000000E+00  0.00000000E+00 -3.24284542E+01  0.00000000E+00
  0.00000000E+00 -3.13452597E+01  0.00000000E+00  0.00000000E+00 -3.46798291E+01