atomref-proatoms C_q0_mult3_nist x2c-QZVPall
GAUSSIAN              7 MOL ORBITALS     92 PRIMITIVES        1 NUCLEI
  C    1    (CENTRE  1)   0.00000000  0.00000000  0.00000000  CHARGE = 6.0
CENTRE ASSIGNMENTS    1  1  1  1  1  1  1  1  1  1  1  1  1  1  1  1  1  1  1  1
CENTRE ASSIGNMENTS    1  1  1  1  1  1  1  1  1  1  1  1  1  1  1  1  1  1  1  1
CENTRE ASSIGNMENTS    1  1  1  1  1  1  1  1  1  1  1  1  1  1  1  1  1  1  1  1
CENTRE ASSIGNMENTS    1  1  1  1  1  1  1  1  1  1  1  1  1  1  1  1  1  1  1  1
CENTRE ASSIGNMENTS    1  1  1  1  1  1  1  1  1  1  1  1
TYPE ASSIGNMENTS      1  1  1  1  1  1  1  1  1  1  1  1  1  1  1  2  3  4  2  3
TYPE ASSIGNMENTS      4  2  3  4  2  3  4  2  3  4  2  3  4  2  3  4  2  3  4  5
TYPE ASSIGNMENTS      8  9  6 10  7  5  8  9  6 10  7  5  8  9  6 10  7 11 14 15
TYPE ASSIGNMENTS     17 20 18 12 16 19 13 11 14 15 17 20 18 12 16 19 13 21 24 25
TYPE ASSIGNMENTS     30 33 31 26 34 35 28 22 27 32 29 23
EXPONENTS  6.7038980E+04 1.0039987E+04 2.2848875E+03 6.4706073E+02 2.1116288E+02
EXPONENTS  7.6190494E+01 2.9638561E+01 1.2184934E+01 5.3026006E+01 1.5258503E+01
EXPONENTS  5.2400468E+00 2.2912660E+00 6.9680521E-01 2.7592024E-01 1.0739884E-01
EXPONENTS  1.0512555E+02 1.0512555E+02 1.0512555E+02 2.4884461E+01 2.4884461E+01
EXPONENTS  2.4884461E+01 7.8637620E+00 7.8637620E+00 7.8637620E+00 2.8407002E+00
EXPONENTS  2.8407002E+00 2.8407002E+00 1.1227137E+00 1.1227137E+00 1.1227137E+00
EXPONENTS  4.6050726E-01 4.6050726E-01 4.6050726E-01 1.8937531E-01 1.8937531E-01
EXPONENTS  1.8937531E-01 7.5983791E-02 7.5983791E-02 7.5983791E-02 1.8480000E+00
EXPONENTS  1.8480000E+00 1.8480000E+00 1.8480000E+00 1.8480000E+00 1.8480000E+00
EXPONENTS  6.4900000E-01 6.4900000E-01 6.4900000E-01 6.4900000E-01 6.4900000E-01
EXPONENTS  6.4900000E-01 2.2800000E-01 2.2800000E-01 2.2800000E-01 2.2800000E-01
EXPONENTS  2.2800000E-01 2.2800000E-01 1.4190000E+00 1.4190000E+00 1.4190000E+00
EXPONENTS  1.4190000E+00 1.4190000E+00 1.4190000E+00 1.4190000E+00 1.4190000E+00
EXPONENTS  1.4190000E+00 1.4190000E+00 4.8500000E-01 4.8500000E-01 4.8500000E-01
EXPONENTS  4.8500000E-01 4.8500000E-01 4.8500000E-01 4.8500000E-01 4.8500000E-01
EXPONENTS  4.8500000E-01 4.8500000E-01 1.0110000E+00 1.0110000E+00 1.0110000E+00
EXPONENTS  1.0110000E+00 1.0110000E+00 1.0110000E+00 1.0110000E+00 1.0110000E+00
EXPONENTS  1.0110000E+00 1.0110000E+00 1.0110000E+00 1.0110000E+00 1.0110000E+00
EXPONENTS  1.0110000E+00 1.0110000E+00
MO    1                     OCC NO =   1.00000000 ORB. ENERGY = -10.38455687
  2.18741986E-01  2.68886301E-01  4.02747060E-01  6.23364847E-01  9.37856493E-01
  1.30801016E+00  1.58670639E+00  1.51458273E+00 -7.84190192E-03 -3.12146153E-02
  8.94834053E-01  2.45851950E-01  8.33718336E-03 -9.97820233E-04  1.44948331E-04
  0.00000000E+00  0.00000000E+00  0.00000000E+00  0.00000000E+00  0.00000000E+00
  0.00000000E+00  0.00000000E+00  0.00000000E+00  0.00000000E+00  0.00000000E+00
  0.00000000E+00  0.00000000E+00  0.00000000E+00  0.00000000E+00  0.00000000E+00
  0.00000000E+00  0.00000000E+00  0.00000000E+00  0.00000000E+00  0.00000000E+00
  0.00000000E+00  0.00000000E+00  0.00000000E+00  0.00000000E+00  0.00000000E+00
  0.00000000E+00  0.00000000E+00  0.00000000E+00  0.00000000E+00  0.00000000E+00
  0.00000000E+00  0.00000000E+00  0.00000000E+00  0.00000000E+00  0.00000000E+00
  0.00000000E+00  0.00000000E+00  0.00000000E+00  0.00000000E+00  0.00000000E+00
  0.00000000E+00  0.00000000E+00  0.00000000E+00  0.00000000E+00  0.00000000E+00
  0.00000000E+00  0.00000000E+00  0.00000000E+00  0.00000000E+00  0.00000000E+00
  0.00000000E+00  0.00000000E+00  0.00000000E+00  0.00000000E+00  0.00000000E+00
  0.00000000E+00  0.00000000E+00  0.00000000E+00  0.00000000E+00  0.00000000E+00
  0.00000000E+00  0.00000000E+00  0.00000000E+00  0.00000000E+00  0.00000000E+00
  0.00000000E+00  0.00000000E+00  0.00000000E+00  0.00000000E+00  0.00000000E+00
  0.00000000E+00  0.00000000E+00  0.00000000E+00  0.00000000E+00  0.00000000E+00
  0.00000000E+00  0.00000000E+00
MO    2                     OCC NO =   1.00000000 ORB. ENERGY =  -0.62218633
 -4.99962199E-02 -6.14573310E-02 -9.20528836E-02 -1.42477841E-01 -2.14358845E-01
 -2.98962101E-01 -3.62661613E-01 -3.46176849E-01 -2.18127836E-02 -8.68255760E-02
 -3.64213029E-01 -1.35210531E-01  1.80075228E-01  1.60645065E-01  3.00383233E-02
  0.00000000E+00  0.00000000E+00  0.00000000E+00  0.00000000E+00  0.00000000E+00
  0.00000000E+00  0.00000000E+00  0.00000000E+00  0.00000000E+00  0.00000000E+00
  0.00000000E+00  0.00000000E+00  0.00000000E+00  0.00000000E+00  0.00000000E+00
  0.00000000E+00  0.00000000E+00  0.00000000E+00  0.00000000E+00  0.00000000E+00
  0.00000000E+00  0.00000000E+00  0.00000000E+00  0.00000000E+00  0.00000000E+00
  0.00000000E+00  0.00000000E+00  0.00000000E+00  0.00000000E+00  0.00000000E+00
  0.00000000E+00  0.00000000E+00  0.00000000E+00  0.00000000E+00  0.00000000E+00
  0.00000000E+00  0.00000000E+00  0.00000000E+00  0.00000000E+00  0.00000000E+00
  0.00000000E+00  0.00000000E+00  0.00000000E+00  0.00000000E+00  0.00000000E+00
  0.00000000E+00  0.00000000E+00  0.00000000E+00  0.00000000E+00  0.00000000E+00
  0.00000000E+00  0.00000000E+00  0.00000000E+00  0.00000000E+00  0.00000000E+00
  0.00000000E+00  0.00000000E+00  0.00000000E+00  0.00000000E+00  0.00000000E+00
  0.00000000E+00  0.00000000E+00  0.00000000E+00  0.00000000E+00  0.00000000E+00
  0.00000000E+00  0.00000000E+00  0.00000000E+00  0.00000000E+00  0.00000000E+00
  0.00000000E+00  0.00000000E+00  0.00000000E+00  0.00000000E+00  0.00000000E+00
  0.00000000E+00  0.00000000E+00
MO    3                     OCC NO =   0.66666667 ORB. ENERGY =  -0.24617003
  0.00000000E+00  0.00000000E+00  0.00000000E+00  0.00000000E+00  0.00000000E+00
  0.00000000E+00  0.00000000E+00  0.00000000E+00  0.00000000E+00  0.00000000E+00
  0.00000000E+00  0.00000000E+00  0.00000000E+00  0.00000000E+00  0.00000000E+00
  4.12100004E-01  0.00000000E+00  0.00000000E+00  5.25965874E-01  0.00000000E+00
  0.00000000E+00  5.65021863E-01  0.00000000E+00  0.00000000E+00  5.24657720E-01
  0.00000000E+00  0.00000000E+00  3.91781473E-01  0.00000000E+00  0.00000000E+00
  1.96303991E-01  0.00000000E+00  0.00000000E+00  6.12255002E-02  0.00000000E+00
  0.00000000E+00  9.90927736E-03  0.00000000E+00  0.00000000E+00  0.00000000E+00
  0.00000000E+00  0.00000000E+00  0.00000000E+00  0.00000000E+00  0.00000000E+00
  0.00000000E+00  0.00000000E+00  0.00000000E+00  0.00000000E+00  0.00000000E+00
  0.00000000E+00  0.00000000E+00  0.00000000E+00  0.00000000E+00  0.00000000E+00
  0.00000000E+00  0.00000000E+00  0.00000000E+00  0.00000000E+00  0.00000000E+00
  0.00000000E+00  0.00000000E+00  0.00000000E+00  0.00000000E+00  0.00000000E+00
  0.00000000E+00  0.00000000E+00  0.00000000E+00  0.00000000E+00  0.00000000E+00
  0.00000000E+00  0.00000000E+00  0.00000000E+00  0.00000000E+00  0.00000000E+00
  0.00000000E+00  0.00000000E+00  0.00000000E+00  0.00000000E+00  0.00000000E+00
  0.00000000E+00  0.00000000E+00  0.00000000E+00  0.00000000E+00  0.00000000E+00
  0.00000000E+00  0.00000000E+00  0.00000000E+00  0.00000000E+00  0.00000000E+00
  0.00000000E+00  0.00000000E+00
MO    4                     OCC NO =   0.66666667 ORB. ENERGY =  -0.24617003
  0.00000000E+00  0.00000000E+00  0.00000000E+00  0.00000000E+00  0.00000000E+00
  0.00000000E+00  0.00000000E+00  0.00000000E+00  0.00000000E+00  0.00000000E+00
  0.00000000E+00  0.00000000E+00  0.00000000E+00  0.00000000E+00  0.00000000E+00
  0.00000000E+00  4.12100004E-01  0.00000000E+00  0.00000000E+00  5.25965874E-01
  0.00000000E+00  0.00000000E+00  5.65021863E-01  0.00000000E+00  0.00000000E+00
  5.24657720E-01  0.00000000E+00  0.00000000E+00  3.91781473E-01  0.00000000E+00
  0.00000000E+00  1.96303991E-01  0.00000000E+00  0.00000000E+00  6.12255002E-02
  0.00000000E+00  0.00000000E+00  9.90927736E-03  0.00000000E+00  0.00000000E+00
  0.00000000E+00  0.00000000E+00  0.00000000E+00  0.00000000E+00  0.00000000E+00
  0.00000000E+00  0.00000000E+00  0.00000000E+00  0.00000000E+00  0.00000000E+00
  0.00000000E+00  0.00000000E+00  0.00000000E+00  0.00000000E+00  0.00000000E+00
  0.00000000E+00  0.00000000E+00  0.00000000E+00  0.00000000E+00  0.00000000E+00
  0.00000000E+00  0.00000000E+00  0.00000000E+00  0.00000000E+00  0.00000000E+00
  0.00000000E+00  0.00000000E+00  0.00000000E+00  0.00000000E+00  0.00000000E+00
  0.00000000E+00  0.00000000E+00  0.00000000E+00  0.00000000E+00  0.00000000E+00
  0.00000000E+00  0.00000000E+00  0.00000000E+00  0.00000000E+00  0.00000000E+00
  0.00000000E+00  0.00000000E+00  0.00000000E+00  0.00000000E+00  0.00000000E+00
  0.00000000E+00  0.00000000E+00  0.00000000E+00  0.00000000E+00  0.00000000E+00
  0.00000000E+00  0.00000000E+00
MO    5                     OCC NO =   0.66666667 ORB. ENERGY =  -0.24617003
  0.00000000E+00  0.00000000E+00  0.00000000E+00  0.00000000E+00  0.00000000E+00
  0.00000000E+00  0.00000000E+00  0.00000000E+00  0.00000000E+00  0.00000000E+00
  0.00000000E+00  0.00000000E+00  0.00000000E+00  0.00000000E+00  0.00000000E+00
  0.00000000E+00  0.00000000E+00  4.12100004E-01  0.00000000E+00  0.00000000E+00
  5.25965874E-01  0.00000000E+00  0.00000000E+00  5.65021863E-01  0.00000000E+00
  0.00000000E+00  5.24657720E-01  0.00000000E+00  0.00000000E+00  3.91781473E-01
  0.00000000E+00  0.00000000E+00  1.96303991E-01  0.00000000E+00  0.00000000E+00
  6.12255002E-02  0.00000000E+00  0.00000000E+00  9.90927736E-03  0.00000000E+00
  0.00000000E+00  0.00000000E+00  0.00000000E+00  0.00000000E+00  0.00000000E+00
  0.00000000E+00  0.00000000E+00  0.00000000E+00  0.00000000E+00  0.00000000E+00
  0.00000000E+00  0.00000000E+00  0.00000000E+00  0.00000000E+00  0.00000000E+00
  0.00000000E+00  0.00000000E+00  0.00000000E+00  0.00000000E+00  0.00000000E+00
  0.00000000E+00  0.00000000E+00  0.00000000E+00  0.00000000E+00  0.00000000E+00
  0.00000000E+00  0.00000000E+00  0.00000000E+00  0.00000000E+00  0.00000000E+00
  0.00000000E+00  0.00000000E+00  0.00000000E+00  0.00000000E+00  0.00000000E+00
  0.00000000E+00  0.00000000E+00  0.00000000E+00  0.00000000E+00  0.00000000E+00
  0.00000000E+00  0.00000000E+00  0.00000000E+00  0.00000000E+00  0.00000000E+00
  0.00000000E+00  0.00000000E+00  0.00000000E+00  0.00000000E+00  0.00000000E+00
  0.00000000E+00  0.00000000E+00
MO    7                     OCC NO =   1.00000000 ORB. ENERGY = -10.35323992
  2.19162999E-01  2.69403827E-01  4.03522228E-01  6.24564637E-01  9.39661586E-01
  1.31052769E+00  1.58976032E+00  1.51749785E+00 -7.37153830E-03 -2.93423375E-02
  8.96996962E-01  2.43807920E-01  7.19829346E-03 -8.87581794E-04  1.10582794E-04
  0.00000000E+00  0.00000000E+00  0.00000000E+00  0.00000000E+00  0.00000000E+00
  0.00000000E+00  0.00000000E+00  0.00000000E+00  0.00000000E+00  0.00000000E+00
  0.00000000E+00  0.00000000E+00  0.00000000E+00  0.00000000E+00  0.00000000E+00
  0.00000000E+00  0.00000000E+00  0.00000000E+00  0.00000000E+00  0.00000000E+00
  0.00000000E+00  0.00000000E+00  0.00000000E+00  0.00000000E+00  0.00000000E+00
  0.00000000E+00  0.00000000E+00  0.00000000E+00  0.00000000E+00  0.00000000E+00
  0.00000000E+00  0.00000000E+00  0.00000000E+00  0.00000000E+00  0.00000000E+00
  0.00000000E+00  0.00000000E+00  0.00000000E+00  0.00000000E+00  0.00000000E+00
  0.00000000E+00  0.00000000E+00  0.00000000E+00  0.00000000E+00  0.00000000E+00
  0.00000000E+00  0.00000000E+00  0.00000000E+00  0.00000000E+00  0.00000000E+00
  0.00000000E+00  0.00000000E+00  0.00000000E+00  0.00000000E+00  0.00000000E+00
  0.00000000E+00  0.00000000E+00  0.00000000E+00  0.00000000E+00  0.00000000E+00
  0.00000000E+00  0.00000000E+00  0.00000000E+00  0.00000000E+00  0.00000000E+00
  0.00000000E+00  0.00000000E+00  0.00000000E+00  0.00000000E+00  0.00000000E+00
  0.00000000E+00  0.00000000E+00  0.00000000E+00  0.00000000E+00  0.00000000E+00
  0.00000000E+00  0.00000000E+00
MO    8                     OCC NO =   1.00000000 ORB. ENERGY =  -0.49364935
 -4.82357143E-02 -5.92932479E-02 -8.88114463E-02 -1.37460801E-01 -2.06810675E-01
 -2.88434816E-01 -3.49891291E-01 -3.33987002E-01 -2.25542449E-02 -8.97769553E-02
 -3.50194753E-01 -1.27650644E-01  1.70205057E-01  1.49138999E-01  3.82525752E-02
  0.00000000E+00  0.00000000E+00  0.00000000E+00  0.00000000E+00  0.00000000E+00
  0.00000000E+00  0.00000000E+00  0.00000000E+00  0.00000000E+00  0.00000000E+00
  0.00000000E+00  0.00000000E+00  0.00000000E+00  0.00000000E+00  0.00000000E+00
  0.00000000E+00  0.00000000E+00  0.00000000E+00  0.00000000E+00  0.00000000E+00
  0.00000000E+00  0.00000000E+00  0.00000000E+00  0.00000000E+00  0.00000000E+00
  0.00000000E+00  0.00000000E+00  0.00000000E+00  0.00000000E+00  0.00000000E+00
  0.00000000E+00  0.00000000E+00  0.00000000E+00  0.00000000E+00  0.00000000E+00
  0.00000000E+00  0.00000000E+00  0.00000000E+00  0.00000000E+00  0.00000000E+00
  0.00000000E+00  0.00000000E+00  0.00000000E+00  0.00000000E+00  0.00000000E+00
  0.00000000E+00  0.00000000E+00  0.00000000E+00  0.00000000E+00  0.00000000E+00
  0.00000000E+00  0.00000000E+00  0.00000000E+00  0.00000000E+00  0.00000000E+00
  0.00000000E+00  0.00000000E+00  0.00000000E+00  0.00000000E+00  0.00000000E+00
  0.00000000E+00  0.00000000E+00  0.00000000E+00  0.00000000E+00  0.00000000E+00
  0.00000000E+00  0.00000000E+00  0.00000000E+00  0.00000000E+00  0.00000000E+00
  0.00000000E+00  0.00000000E+00  0.00000000E+00  0.00000000E+00  0.00000000E+00
  0.00000000E+00  0.00000000E+00
END DATA
SCF      ENERGY =     -37.778523438915   VIRIAL(-V/T)  =   2.00000000

$MOSPIN
 1 1 1 1 1 2 2
$END
