atomref-proatoms Ca_q0_mult1_nist x2c-QZVPall
GAUSSIAN             20 MOL ORBITALS    140 PRIMITIVES        1 NUCLEI
  Ca   1    (CENTRE  1)   0.00000000  0.00000000  0.00000000  CHARGE = 20.0
CENTRE ASSIGNMENTS    1  1  1  1  1  1  1  1  1  1  1  1  1  1  1  1  1  1  1  1
CENTRE ASSIGNMENTS    1  1  1  1  1  1  1  1  1  1  1  1  1  1  1  1  1  1  1  1
CENTRE ASSIGNMENTS    1  1  1  1  1  1  1  1  1  1  1  1  1  1  1  1  1  1  1  1
CENTRE ASSIGNMENTS    1  1  1  1  1  1  1  1  1  1  1  1  1  1  1  1  1  1  1  1
CENTRE ASSIGNMENTS    1  1  1  1  1  1  1  1  1  1  1  1  1  1  1  1  1  1  1  1
CENTRE ASSIGNMENTS    1  1  1  1  1  1  1  1  1  1  1  1  1  1  1  1  1  1  1  1
CENTRE ASSIGNMENTS    1  1  1  1  1  1  1  1  1  1  1  1  1  1  1  1  1  1  1  1
TYPE ASSIGNMENTS      1  1  1  1  1  1  1  1  1  1  1  1  1  1  1  1  1  1  1  1
TYPE ASSIGNMENTS      1  1  1  1  2  3  4  2  3  4  2  3  4  2  3  4  2  3  4  2
TYPE ASSIGNMENTS      3  4  2  3  4  2  3  4  2  3  4  2  3  4  2  3  4  2  3  4
TYPE ASSIGNMENTS      2  3  4  2  3  4  2  3  4  2  3  4  2  3  4  2  3  4  2  3
TYPE ASSIGNMENTS      4  2  3  4  5  8  9  6 10  7  5  8  9  6 10  7  5  8  9  6
TYPE ASSIGNMENTS     10  7  5  8  9  6 10  7  5  8  9  6 10  7  5  8  9  6 10  7
TYPE ASSIGNMENTS     11 14 15 17 20 18 12 16 19 13 11 14 15 17 20 18 12 16 19 13
EXPONENTS  2.7625330E+06 4.7185445E+05 1.0619438E+05 2.7972089E+04 8.7130778E+03
EXPONENTS  3.0810150E+03 1.1885173E+03 4.8509428E+02 2.0807506E+02 9.4018293E+01
EXPONENTS  4.3890999E+01 7.9051423E+02 2.4005948E+02 9.2030142E+01 3.9739991E+01
EXPONENTS  1.9396625E+01 8.5639093E+00 3.9898960E+00 1.6854142E+00 8.1503886E-01
EXPONENTS  3.6404303E-01 8.4510325E-02 4.7378166E-02 2.2187658E-02 1.0841380E+04
EXPONENTS  1.0841380E+04 1.0841380E+04 3.0006525E+03 3.0006525E+03 3.0006525E+03
EXPONENTS  9.2187028E+02 9.2187028E+02 9.2187028E+02 3.1437420E+02 3.1437420E+02
EXPONENTS  3.1437420E+02 1.1900000E+02 1.1900000E+02 1.1900000E+02 5.0239789E+01
EXPONENTS  5.0239789E+01 5.0239789E+01 2.2363236E+01 2.2363236E+01 2.2363236E+01
EXPONENTS  1.0374550E+01 1.0374550E+01 1.0374550E+01 4.9524626E+00 4.9524626E+00
EXPONENTS  4.9524626E+00 2.3076483E+00 2.3076483E+00 2.3076483E+00 7.8000000E+00
EXPONENTS  7.8000000E+00 7.8000000E+00 3.1487554E+01 3.1487554E+01 3.1487554E+01
EXPONENTS  1.0696871E+01 1.0696871E+01 1.0696871E+01 2.0597726E+00 2.0597726E+00
EXPONENTS  2.0597726E+00 9.4599447E-01 9.4599447E-01 9.4599447E-01 4.2859006E-01
EXPONENTS  4.2859006E-01 4.2859006E-01 1.7919870E-01 1.7919870E-01 1.7919870E-01
EXPONENTS  8.6000000E-02 8.6000000E-02 8.6000000E-02 4.1500000E-02 4.1500000E-02
EXPONENTS  4.1500000E-02 2.0000000E-02 2.0000000E-02 2.0000000E-02 1.6924012E+01
EXPONENTS  1.6924012E+01 1.6924012E+01 1.6924012E+01 1.6924012E+01 1.6924012E+01
EXPONENTS  4.4655403E+00 4.4655403E+00 4.4655403E+00 4.4655403E+00 4.4655403E+00
EXPONENTS  4.4655403E+00 1.4347576E+00 1.4347576E+00 1.4347576E+00 1.4347576E+00
EXPONENTS  1.4347576E+00 1.4347576E+00 4.6552377E-01 4.6552377E-01 4.6552377E-01
EXPONENTS  4.6552377E-01 4.6552377E-01 4.6552377E-01 1.4097711E-01 1.4097711E-01
EXPONENTS  1.4097711E-01 1.4097711E-01 1.4097711E-01 1.4097711E-01 4.1467009E-02
EXPONENTS  4.1467009E-02 4.1467009E-02 4.1467009E-02 4.1467009E-02 4.1467009E-02
EXPONENTS  5.7000000E-01 5.7000000E-01 5.7000000E-01 5.7000000E-01 5.7000000E-01
EXPONENTS  5.7000000E-01 5.7000000E-01 5.7000000E-01 5.7000000E-01 5.7000000E-01
EXPONENTS  1.9000000E-01 1.9000000E-01 1.9000000E-01 1.9000000E-01 1.9000000E-01
EXPONENTS  1.9000000E-01 1.9000000E-01 1.9000000E-01 1.9000000E-01 1.9000000E-01
MO    1                     OCC NO =   1.00000000 ORB. ENERGY = -146.30878064
  3.57977581E+00  2.66065602E+00  2.93320946E+00  3.39904102E+00  4.20150004E+00
  5.49113987E+00  7.20461244E+00  9.02759324E+00  9.39632988E+00  7.01870739E+00
  2.82511614E+00  7.88614795E-02  2.91101126E-01  5.98869482E-01  5.38272643E-01
  5.01469150E-01 -2.32862327E-02  1.13411098E-02 -3.84309621E-03  1.37254104E-03
 -2.93753131E-04  5.18005671E-05 -2.82564914E-05  4.31817784E-06  0.00000000E+00
  0.00000000E+00  0.00000000E+00  0.00000000E+00  0.00000000E+00  0.00000000E+00
  0.00000000E+00  0.00000000E+00  0.00000000E+00  0.00000000E+00  0.00000000E+00
  0.00000000E+00  0.00000000E+00  0.00000000E+00  0.00000000E+00  0.00000000E+00
  0.00000000E+00  0.00000000E+00  0.00000000E+00  0.00000000E+00  0.00000000E+00
  0.00000000E+00  0.00000000E+00  0.00000000E+00  0.00000000E+00  0.00000000E+00
  0.00000000E+00  0.00000000E+00  0.00000000E+00  0.00000000E+00  0.00000000E+00
  0.00000000E+00  0.00000000E+00  0.00000000E+00  0.00000000E+00  0.00000000E+00
  0.00000000E+00  0.00000000E+00  0.00000000E+00  0.00000000E+00  0.00000000E+00
  0.00000000E+00  0.00000000E+00  0.00000000E+00  0.00000000E+00  0.00000000E+00
  0.00000000E+00  0.00000000E+00  0.00000000E+00  0.00000000E+00  0.00000000E+00
  0.00000000E+00  0.00000000E+00  0.00000000E+00  0.00000000E+00  0.00000000E+00
  0.00000000E+00  0.00000000E+00  0.00000000E+00  0.00000000E+00  0.00000000E+00
  0.00000000E+00  0.00000000E+00  0.00000000E+00  0.00000000E+00  0.00000000E+00
  0.00000000E+00  0.00000000E+00  0.00000000E+00  0.00000000E+00  0.00000000E+00
  0.00000000E+00  0.00000000E+00  0.00000000E+00  0.00000000E+00  0.00000000E+00
  0.00000000E+00  0.00000000E+00  0.00000000E+00  0.00000000E+00  0.00000000E+00
  0.00000000E+00  0.00000000E+00  0.00000000E+00  0.00000000E+00  0.00000000E+00
  0.00000000E+00  0.00000000E+00  0.00000000E+00  0.00000000E+00  0.00000000E+00
  0.00000000E+00  0.00000000E+00  0.00000000E+00  0.00000000E+00  0.00000000E+00
  0.00000000E+00  0.00000000E+00  0.00000000E+00  0.00000000E+00  0.00000000E+00
  0.00000000E+00  0.00000000E+00  0.00000000E+00  0.00000000E+00  0.00000000E+00
  0.00000000E+00  0.00000000E+00  0.00000000E+00  0.00000000E+00  0.00000000E+00
  0.00000000E+00  0.00000000E+00  0.00000000E+00  0.00000000E+00  0.00000000E+00
MO    2                     OCC NO =   1.00000000 ORB. ENERGY = -15.66560187
 -1.06115608E+00 -7.88700594E-01 -8.69493848E-01 -1.00758071E+00 -1.24545434E+00
 -1.62774340E+00 -2.13566958E+00 -2.67605737E+00 -2.78536230E+00 -2.08056158E+00
 -8.37451653E-01 -1.90986503E-01 -7.04987866E-01 -1.45034038E+00 -1.30358713E+00
  3.60443314E-01  1.81394426E+00  9.98663997E-01  1.11175114E-01 -8.04975438E-03
  1.58312816E-03 -2.44886935E-04  1.32826793E-04 -2.02487581E-05  0.00000000E+00
  0.00000000E+00  0.00000000E+00  0.00000000E+00  0.00000000E+00  0.00000000E+00
  0.00000000E+00  0.00000000E+00  0.00000000E+00  0.00000000E+00  0.00000000E+00
  0.00000000E+00  0.00000000E+00  0.00000000E+00  0.00000000E+00  0.00000000E+00
  0.00000000E+00  0.00000000E+00  0.00000000E+00  0.00000000E+00  0.00000000E+00
  0.00000000E+00  0.00000000E+00  0.00000000E+00  0.00000000E+00  0.00000000E+00
  0.00000000E+00  0.00000000E+00  0.00000000E+00  0.00000000E+00  0.00000000E+00
  0.00000000E+00  0.00000000E+00  0.00000000E+00  0.00000000E+00  0.00000000E+00
  0.00000000E+00  0.00000000E+00  0.00000000E+00  0.00000000E+00  0.00000000E+00
  0.00000000E+00  0.00000000E+00  0.00000000E+00  0.00000000E+00  0.00000000E+00
  0.00000000E+00  0.00000000E+00  0.00000000E+00  0.00000000E+00  0.00000000E+00
  0.00000000E+00  0.00000000E+00  0.00000000E+00  0.00000000E+00  0.00000000E+00
  0.00000000E+00  0.00000000E+00  0.00000000E+00  0.00000000E+00  0.00000000E+00
  0.00000000E+00  0.00000000E+00  0.00000000E+00  0.00000000E+00  0.00000000E+00
  0.00000000E+00  0.00000000E+00  0.00000000E+00  0.00000000E+00  0.00000000E+00
  0.00000000E+00  0.00000000E+00  0.00000000E+00  0.00000000E+00  0.00000000E+00
  0.00000000E+00  0.00000000E+00  0.00000000E+00  0.00000000E+00  0.00000000E+00
  0.00000000E+00  0.00000000E+00  0.00000000E+00  0.00000000E+00  0.00000000E+00
  0.00000000E+00  0.00000000E+00  0.00000000E+00  0.00000000E+00  0.00000000E+00
  0.00000000E+00  0.00000000E+00  0.00000000E+00  0.00000000E+00  0.00000000E+00
  0.00000000E+00  0.00000000E+00  0.00000000E+00  0.00000000E+00  0.00000000E+00
  0.00000000E+00  0.00000000E+00  0.00000000E+00  0.00000000E+00  0.00000000E+00
  0.00000000E+00  0.00000000E+00  0.00000000E+00  0.00000000E+00  0.00000000E+00
  0.00000000E+00  0.00000000E+00  0.00000000E+00  0.00000000E+00  0.00000000E+00
MO    3                     OCC NO =   1.00000000 ORB. ENERGY =  -1.87462617
  3.74674992E-01  2.78475895E-01  3.07002530E-01  3.55758499E-01  4.39747369E-01
  5.74726714E-01  7.54066247E-01  9.44867390E-01  9.83460979E-01  7.34608611E-01
  2.95689011E-01  7.77597604E-02  2.87034354E-01  5.90503092E-01  5.30752809E-01
 -1.64720127E-01 -9.71870528E-01 -8.54108497E-01  6.78848603E-02  4.35986355E-01
  1.44061913E-01  4.33398698E-03 -1.69261537E-03  2.21962551E-04  0.00000000E+00
  0.00000000E+00  0.00000000E+00  0.00000000E+00  0.00000000E+00  0.00000000E+00
  0.00000000E+00  0.00000000E+00  0.00000000E+00  0.00000000E+00  0.00000000E+00
  0.00000000E+00  0.00000000E+00  0.00000000E+00  0.00000000E+00  0.00000000E+00
  0.00000000E+00  0.00000000E+00  0.00000000E+00  0.00000000E+00  0.00000000E+00
  0.00000000E+00  0.00000000E+00  0.00000000E+00  0.00000000E+00  0.00000000E+00
  0.00000000E+00  0.00000000E+00  0.00000000E+00  0.00000000E+00  0.00000000E+00
  0.00000000E+00  0.00000000E+00  0.00000000E+00  0.00000000E+00  0.00000000E+00
  0.00000000E+00  0.00000000E+00  0.00000000E+00  0.00000000E+00  0.00000000E+00
  0.00000000E+00  0.00000000E+00  0.00000000E+00  0.00000000E+00  0.00000000E+00
  0.00000000E+00  0.00000000E+00  0.00000000E+00  0.00000000E+00  0.00000000E+00
  0.00000000E+00  0.00000000E+00  0.00000000E+00  0.00000000E+00  0.00000000E+00
  0.00000000E+00  0.00000000E+00  0.00000000E+00  0.00000000E+00  0.00000000E+00
  0.00000000E+00  0.00000000E+00  0.00000000E+00  0.00000000E+00  0.00000000E+00
  0.00000000E+00  0.00000000E+00  0.00000000E+00  0.00000000E+00  0.00000000E+00
  0.00000000E+00  0.00000000E+00  0.00000000E+00  0.00000000E+00  0.00000000E+00
  0.00000000E+00  0.00000000E+00  0.00000000E+00  0.00000000E+00  0.00000000E+00
  0.00000000E+00  0.00000000E+00  0.00000000E+00  0.00000000E+00  0.00000000E+00
  0.00000000E+00  0.00000000E+00  0.00000000E+00  0.00000000E+00  0.00000000E+00
  0.00000000E+00  0.00000000E+00  0.00000000E+00  0.00000000E+00  0.00000000E+00
  0.00000000E+00  0.00000000E+00  0.00000000E+00  0.00000000E+00  0.00000000E+00
  0.00000000E+00  0.00000000E+00  0.00000000E+00  0.00000000E+00  0.00000000E+00
  0.00000000E+00  0.00000000E+00  0.00000000E+00  0.00000000E+00  0.00000000E+00
  0.00000000E+00  0.00000000E+00  0.00000000E+00  0.00000000E+00  0.00000000E+00
MO    4                     OCC NO =   1.00000000 ORB. ENERGY =  -0.15914561
 -9.78563213E-02 -7.27313731E-02 -8.01818610E-02 -9.29157767E-02 -1.14851700E-01
 -1.50105139E-01 -1.96944420E-01 -2.46777204E-01 -2.56856944E-01 -1.91862541E-01
 -7.72270352E-02 -2.07646145E-02 -7.66483548E-02 -1.57685273E-01 -1.41729828E-01
  4.74503716E-02  2.61022181E-01  2.61071853E-01 -3.83571324E-02 -1.62771831E-01
 -1.01986856E-01  3.52331588E-02  4.69538186E-02  8.52937315E-03  0.00000000E+00
  0.00000000E+00  0.00000000E+00  0.00000000E+00  0.00000000E+00  0.00000000E+00
  0.00000000E+00  0.00000000E+00  0.00000000E+00  0.00000000E+00  0.00000000E+00
  0.00000000E+00  0.00000000E+00  0.00000000E+00  0.00000000E+00  0.00000000E+00
  0.00000000E+00  0.00000000E+00  0.00000000E+00  0.00000000E+00  0.00000000E+00
  0.00000000E+00  0.00000000E+00  0.00000000E+00  0.00000000E+00  0.00000000E+00
  0.00000000E+00  0.00000000E+00  0.00000000E+00  0.00000000E+00  0.00000000E+00
  0.00000000E+00  0.00000000E+00  0.00000000E+00  0.00000000E+00  0.00000000E+00
  0.00000000E+00  0.00000000E+00  0.00000000E+00  0.00000000E+00  0.00000000E+00
  0.00000000E+00  0.00000000E+00  0.00000000E+00  0.00000000E+00  0.00000000E+00
  0.00000000E+00  0.00000000E+00  0.00000000E+00  0.00000000E+00  0.00000000E+00
  0.00000000E+00  0.00000000E+00  0.00000000E+00  0.00000000E+00  0.00000000E+00
  0.00000000E+00  0.00000000E+00  0.00000000E+00  0.00000000E+00  0.00000000E+00
  0.00000000E+00  0.00000000E+00  0.00000000E+00  0.00000000E+00  0.00000000E+00
  0.00000000E+00  0.00000000E+00  0.00000000E+00  0.00000000E+00  0.00000000E+00
  0.00000000E+00  0.00000000E+00  0.00000000E+00  0.00000000E+00  0.00000000E+00
  0.00000000E+00  0.00000000E+00  0.00000000E+00  0.00000000E+00  0.00000000E+00
  0.00000000E+00  0.00000000E+00  0.00000000E+00  0.00000000E+00  0.00000000E+00
  0.00000000E+00  0.00000000E+00  0.00000000E+00  0.00000000E+00  0.00000000E+00
  0.00000000E+00  0.00000000E+00  0.00000000E+00  0.00000000E+00  0.00000000E+00
  0.00000000E+00  0.00000000E+00  0.00000000E+00  0.00000000E+00  0.00000000E+00
  0.00000000E+00  0.00000000E+00  0.00000000E+00  0.00000000E+00  0.00000000E+00
  0.00000000E+00  0.00000000E+00  0.00000000E+00  0.00000000E+00  0.00000000E+00
  0.00000000E+00  0.00000000E+00  0.00000000E+00  0.00000000E+00  0.00000000E+00
MO    5                     OCC NO =   1.00000000 ORB. ENERGY = -12.63894721
  0.00000000E+00  0.00000000E+00  0.00000000E+00  0.00000000E+00  0.00000000E+00
  0.00000000E+00  0.00000000E+00  0.00000000E+00  0.00000000E+00  0.00000000E+00
  0.00000000E+00  0.00000000E+00  0.00000000E+00  0.00000000E+00  0.00000000E+00
  0.00000000E+00  0.00000000E+00  0.00000000E+00  0.00000000E+00  0.00000000E+00
  0.00000000E+00  0.00000000E+00  0.00000000E+00  0.00000000E+00  1.06709451E+01
  0.00000000E+00  0.00000000E+00  1.01948113E+01  0.00000000E+00  0.00000000E+00
  1.39399886E+01  0.00000000E+00  0.00000000E+00  1.88227618E+01  0.00000000E+00
  0.00000000E+00  2.19264059E+01  0.00000000E+00  0.00000000E+00  2.22677264E+01
  0.00000000E+00  0.00000000E+00  1.78457250E+01  0.00000000E+00  0.00000000E+00
  9.93544767E+00  0.00000000E+00  0.00000000E+00  3.24618256E+00  0.00000000E+00
  0.00000000E+00  3.67395616E-01  0.00000000E+00  0.00000000E+00 -6.15894615E-02
  0.00000000E+00  0.00000000E+00 -5.35196265E-03  0.00000000E+00  0.00000000E+00
 -6.23151889E-03  0.00000000E+00  0.00000000E+00  8.83421436E-03  0.00000000E+00
  0.00000000E+00  7.27198545E-03  0.00000000E+00  0.00000000E+00  2.28528764E-03
  0.00000000E+00  0.00000000E+00 -1.43660454E-03  0.00000000E+00  0.00000000E+00
  5.61064738E-04  0.00000000E+00  0.00000000E+00 -1.35108288E-04  0.00000000E+00
  0.00000000E+00  1.72906124E-05  0.00000000E+00  0.00000000E+00  0.00000000E+00
  0.00000000E+00  0.00000000E+00  0.00000000E+00  0.00000000E+00  0.00000000E+00
  0.00000000E+00  0.00000000E+00  0.00000000E+00  0.00000000E+00  0.00000000E+00
  0.00000000E+00  0.00000000E+00  0.00000000E+00  0.00000000E+00  0.00000000E+00
  0.00000000E+00  0.00000000E+00  0.00000000E+00  0.00000000E+00  0.00000000E+00
  0.00000000E+00  0.00000000E+00  0.00000000E+00  0.00000000E+00  0.00000000E+00
  0.00000000E+00  0.00000000E+00  0.00000000E+00  0.00000000E+00  0.00000000E+00
  0.00000000E+00  0.00000000E+00  0.00000000E+00  0.00000000E+00  0.00000000E+00
  0.00000000E+00  0.00000000E+00  0.00000000E+00  0.00000000E+00  0.00000000E+00
  0.00000000E+00  0.00000000E+00  0.00000000E+00  0.00000000E+00  0.00000000E+00
  0.00000000E+00  0.00000000E+00  0.00000000E+00  0.00000000E+00  0.00000000E+00
  0.00000000E+00  0.00000000E+00  0.00000000E+00  0.00000000E+00  0.00000000E+00
MO    6                     OCC NO =   1.00000000 ORB. ENERGY = -12.63894721
  0.00000000E+00  0.00000000E+00  0.00000000E+00  0.00000000E+00  0.00000000E+00
  0.00000000E+00  0.00000000E+00  0.00000000E+00  0.00000000E+00  0.00000000E+00
  0.00000000E+00  0.00000000E+00  0.00000000E+00  0.00000000E+00  0.00000000E+00
  0.00000000E+00  0.00000000E+00  0.00000000E+00  0.00000000E+00  0.00000000E+00
  0.00000000E+00  0.00000000E+00  0.00000000E+00  0.00000000E+00  0.00000000E+00
  1.06709451E+01  0.00000000E+00  0.00000000E+00  1.01948113E+01  0.00000000E+00
  0.00000000E+00  1.39399886E+01  0.00000000E+00  0.00000000E+00  1.88227618E+01
  0.00000000E+00  0.00000000E+00  2.19264059E+01  0.00000000E+00  0.00000000E+00
  2.22677264E+01  0.00000000E+00  0.00000000E+00  1.78457250E+01  0.00000000E+00
  0.00000000E+00  9.93544767E+00  0.00000000E+00  0.00000000E+00  3.24618256E+00
  0.00000000E+00  0.00000000E+00  3.67395616E-01  0.00000000E+00  0.00000000E+00
 -6.15894615E-02  0.00000000E+00  0.00000000E+00 -5.35196265E-03  0.00000000E+00
  0.00000000E+00 -6.23151889E-03  0.00000000E+00  0.00000000E+00  8.83421436E-03
  0.00000000E+00  0.00000000E+00  7.27198545E-03  0.00000000E+00  0.00000000E+00
  2.28528764E-03  0.00000000E+00  0.00000000E+00 -1.43660454E-03  0.00000000E+00
  0.00000000E+00  5.61064738E-04  0.00000000E+00  0.00000000E+00 -1.35108288E-04
  0.00000000E+00  0.00000000E+00  1.72906124E-05  0.00000000E+00  0.00000000E+00
  0.00000000E+00  0.00000000E+00  0.00000000E+00  0.00000000E+00  0.00000000E+00
  0.00000000E+00  0.00000000E+00  0.00000000E+00  0.00000000E+00  0.00000000E+00
  0.00000000E+00  0.00000000E+00  0.00000000E+00  0.00000000E+00  0.00000000E+00
  0.00000000E+00  0.00000000E+00  0.00000000E+00  0.00000000E+00  0.00000000E+00
  0.00000000E+00  0.00000000E+00  0.00000000E+00  0.00000000E+00  0.00000000E+00
  0.00000000E+00  0.00000000E+00  0.00000000E+00  0.00000000E+00  0.00000000E+00
  0.00000000E+00  0.00000000E+00  0.00000000E+00  0.00000000E+00  0.00000000E+00
  0.00000000E+00  0.00000000E+00  0.00000000E+00  0.00000000E+00  0.00000000E+00
  0.00000000E+00  0.00000000E+00  0.00000000E+00  0.00000000E+00  0.00000000E+00
  0.00000000E+00  0.00000000E+00  0.00000000E+00  0.00000000E+00  0.00000000E+00
  0.00000000E+00  0.00000000E+00  0.00000000E+00  0.00000000E+00  0.00000000E+00
MO    7                     OCC NO =   1.00000000 ORB. ENERGY = -12.63894721
  0.00000000E+00  0.00000000E+00  0.00000000E+00  0.00000000E+00  0.00000000E+00
  0.00000000E+00  0.00000000E+00  0.00000000E+00  0.00000000E+00  0.00000000E+00
  0.00000000E+00  0.00000000E+00  0.00000000E+00  0.00000000E+00  0.00000000E+00
  0.00000000E+00  0.00000000E+00  0.00000000E+00  0.00000000E+00  0.00000000E+00
  0.00000000E+00  0.00000000E+00  0.00000000E+00  0.00000000E+00  0.00000000E+00
  0.00000000E+00  1.06709451E+01  0.00000000E+00  0.00000000E+00  1.01948113E+01
  0.00000000E+00  0.00000000E+00  1.39399886E+01  0.00000000E+00  0.00000000E+00
  1.88227618E+01  0.00000000E+00  0.00000000E+00  2.19264059E+01  0.00000000E+00
  0.00000000E+00  2.22677264E+01  0.00000000E+00  0.00000000E+00  1.78457250E+01
  0.00000000E+00  0.00000000E+00  9.93544767E+00  0.00000000E+00  0.00000000E+00
  3.24618256E+00  0.00000000E+00  0.00000000E+00  3.67395616E-01  0.00000000E+00
  0.00000000E+00 -6.15894615E-02  0.00000000E+00  0.00000000E+00 -5.35196265E-03
  0.00000000E+00  0.00000000E+00 -6.23151889E-03  0.00000000E+00  0.00000000E+00
  8.83421436E-03  0.00000000E+00  0.00000000E+00  7.27198545E-03  0.00000000E+00
  0.00000000E+00  2.28528764E-03  0.00000000E+00  0.00000000E+00 -1.43660454E-03
  0.00000000E+00  0.00000000E+00  5.61064738E-04  0.00000000E+00  0.00000000E+00
 -1.35108288E-04  0.00000000E+00  0.00000000E+00  1.72906124E-05  0.00000000E+00
  0.00000000E+00  0.00000000E+00  0.00000000E+00  0.00000000E+00  0.00000000E+00
  0.00000000E+00  0.00000000E+00  0.00000000E+00  0.00000000E+00  0.00000000E+00
  0.00000000E+00  0.00000000E+00  0.00000000E+00  0.00000000E+00  0.00000000E+00
  0.00000000E+00  0.00000000E+00  0.00000000E+00  0.00000000E+00  0.00000000E+00
  0.00000000E+00  0.00000000E+00  0.00000000E+00  0.00000000E+00  0.00000000E+00
  0.00000000E+00  0.00000000E+00  0.00000000E+00  0.00000000E+00  0.00000000E+00
  0.00000000E+00  0.00000000E+00  0.00000000E+00  0.00000000E+00  0.00000000E+00
  0.00000000E+00  0.00000000E+00  0.00000000E+00  0.00000000E+00  0.00000000E+00
  0.00000000E+00  0.00000000E+00  0.00000000E+00  0.00000000E+00  0.00000000E+00
  0.00000000E+00  0.00000000E+00  0.00000000E+00  0.00000000E+00  0.00000000E+00
  0.00000000E+00  0.00000000E+00  0.00000000E+00  0.00000000E+00  0.00000000E+00
MO    8                     OCC NO =   1.00000000 ORB. ENERGY =  -1.11728430
  0.00000000E+00  0.00000000E+00  0.00000000E+00  0.00000000E+00  0.00000000E+00
  0.00000000E+00  0.00000000E+00  0.00000000E+00  0.00000000E+00  0.00000000E+00
  0.00000000E+00  0.00000000E+00  0.00000000E+00  0.00000000E+00  0.00000000E+00
  0.00000000E+00  0.00000000E+00  0.00000000E+00  0.00000000E+00  0.00000000E+00
  0.00000000E+00  0.00000000E+00  0.00000000E+00  0.00000000E+00 -3.66568256E+00
  0.00000000E+00  0.00000000E+00 -3.50212110E+00  0.00000000E+00  0.00000000E+00
 -4.78866421E+00  0.00000000E+00  0.00000000E+00 -6.46599424E+00  0.00000000E+00
  0.00000000E+00 -7.53215790E+00  0.00000000E+00  0.00000000E+00 -7.64940829E+00
  0.00000000E+00  0.00000000E+00 -6.13036261E+00  0.00000000E+00  0.00000000E+00
 -3.41302451E+00  0.00000000E+00  0.00000000E+00 -1.11512848E+00  0.00000000E+00
  0.00000000E+00 -1.26207725E-01  0.00000000E+00  0.00000000E+00  1.36139711E-01
  0.00000000E+00  0.00000000E+00 -4.65028495E-01  0.00000000E+00  0.00000000E+00
 -5.41452554E-01  0.00000000E+00  0.00000000E+00  7.67599042E-01  0.00000000E+00
  0.00000000E+00  6.31858005E-01  0.00000000E+00  0.00000000E+00  1.98567131E-01
  0.00000000E+00  0.00000000E+00  1.31697531E-02  0.00000000E+00  0.00000000E+00
  1.06513932E-03  0.00000000E+00  0.00000000E+00 -2.42446496E-04  0.00000000E+00
  0.00000000E+00  3.49947770E-05  0.00000000E+00  0.00000000E+00  0.00000000E+00
  0.00000000E+00  0.00000000E+00  0.00000000E+00  0.00000000E+00  0.00000000E+00
  0.00000000E+00  0.00000000E+00  0.00000000E+00  0.00000000E+00  0.00000000E+00
  0.00000000E+00  0.00000000E+00  0.00000000E+00  0.00000000E+00  0.00000000E+00
  0.00000000E+00  0.00000000E+00  0.00000000E+00  0.00000000E+00  0.00000000E+00
  0.00000000E+00  0.00000000E+00  0.00000000E+00  0.00000000E+00  0.00000000E+00
  0.00000000E+00  0.00000000E+00  0.00000000E+00  0.00000000E+00  0.00000000E+00
  0.00000000E+00  0.00000000E+00  0.00000000E+00  0.00000000E+00  0.00000000E+00
  0.00000000E+00  0.00000000E+00  0.00000000E+00  0.00000000E+00  0.00000000E+00
  0.00000000E+00  0.00000000E+00  0.00000000E+00  0.00000000E+00  0.00000000E+00
  0.00000000E+00  0.00000000E+00  0.00000000E+00  0.00000000E+00  0.00000000E+00
  0.00000000E+00  0.00000000E+00  0.00000000E+00  0.00000000E+00  0.00000000E+00
MO    9                     OCC NO =   1.00000000 ORB. ENERGY =  -1.11728430
  0.00000000E+00  0.00000000E+00  0.00000000E+00  0.00000000E+00  0.00000000E+00
  0.00000000E+00  0.00000000E+00  0.00000000E+00  0.00000000E+00  0.00000000E+00
  0.00000000E+00  0.00000000E+00  0.00000000E+00  0.00000000E+00  0.00000000E+00
  0.00000000E+00  0.00000000E+00  0.00000000E+00  0.00000000E+00  0.00000000E+00
  0.00000000E+00  0.00000000E+00  0.00000000E+00  0.00000000E+00  0.00000000E+00
 -3.66568256E+00  0.00000000E+00  0.00000000E+00 -3.50212110E+00  0.00000000E+00
  0.00000000E+00 -4.78866421E+00  0.00000000E+00  0.00000000E+00 -6.46599424E+00
  0.00000000E+00  0.00000000E+00 -7.53215790E+00  0.00000000E+00  0.00000000E+00
 -7.64940829E+00  0.00000000E+00  0.00000000E+00 -6.13036261E+00  0.00000000E+00
  0.00000000E+00 -3.41302451E+00  0.00000000E+00  0.00000000E+00 -1.11512848E+00
  0.00000000E+00  0.00000000E+00 -1.26207725E-01  0.00000000E+00  0.00000000E+00
  1.36139711E-01  0.00000000E+00  0.00000000E+00 -4.65028495E-01  0.00000000E+00
  0.00000000E+00 -5.41452554E-01  0.00000000E+00  0.00000000E+00  7.67599042E-01
  0.00000000E+00  0.00000000E+00  6.31858005E-01  0.00000000E+00  0.00000000E+00
  1.98567131E-01  0.00000000E+00  0.00000000E+00  1.31697531E-02  0.00000000E+00
  0.00000000E+00  1.06513932E-03  0.00000000E+00  0.00000000E+00 -2.42446496E-04
  0.00000000E+00  0.00000000E+00  3.49947770E-05  0.00000000E+00  0.00000000E+00
  0.00000000E+00  0.00000000E+00  0.00000000E+00  0.00000000E+00  0.00000000E+00
  0.00000000E+00  0.00000000E+00  0.00000000E+00  0.00000000E+00  0.00000000E+00
  0.00000000E+00  0.00000000E+00  0.00000000E+00  0.00000000E+00  0.00000000E+00
  0.00000000E+00  0.00000000E+00  0.00000000E+00  0.00000000E+00  0.00000000E+00
  0.00000000E+00  0.00000000E+00  0.00000000E+00  0.00000000E+00  0.00000000E+00
  0.00000000E+00  0.00000000E+00  0.00000000E+00  0.00000000E+00  0.00000000E+00
  0.00000000E+00  0.00000000E+00  0.00000000E+00  0.00000000E+00  0.00000000E+00
  0.00000000E+00  0.00000000E+00  0.00000000E+00  0.00000000E+00  0.00000000E+00
  0.00000000E+00  0.00000000E+00  0.00000000E+00  0.00000000E+00  0.00000000E+00
  0.00000000E+00  0.00000000E+00  0.00000000E+00  0.00000000E+00  0.00000000E+00
  0.00000000E+00  0.00000000E+00  0.00000000E+00  0.00000000E+00  0.00000000E+00
MO   10                    OCC NO =   1.00000000 ORB. ENERGY =  -1.11728430
  0.00000000E+00  0.00000000E+00  0.00000000E+00  0.00000000E+00  0.00000000E+00
  0.00000000E+00  0.00000000E+00  0.00000000E+00  0.00000000E+00  0.00000000E+00
  0.00000000E+00  0.00000000E+00  0.00000000E+00  0.00000000E+00  0.00000000E+00
  0.00000000E+00  0.00000000E+00  0.00000000E+00  0.00000000E+00  0.00000000E+00
  0.00000000E+00  0.00000000E+00  0.00000000E+00  0.00000000E+00  0.00000000E+00
  0.00000000E+00 -3.66568256E+00  0.00000000E+00  0.00000000E+00 -3.50212110E+00
  0.00000000E+00  0.00000000E+00 -4.78866421E+00  0.00000000E+00  0.00000000E+00
 -6.46599424E+00  0.00000000E+00  0.00000000E+00 -7.53215790E+00  0.00000000E+00
  0.00000000E+00 -7.64940829E+00  0.00000000E+00  0.00000000E+00 -6.13036261E+00
  0.00000000E+00  0.00000000E+00 -3.41302451E+00  0.00000000E+00  0.00000000E+00
 -1.11512848E+00  0.00000000E+00  0.00000000E+00 -1.26207725E-01  0.00000000E+00
  0.00000000E+00  1.36139711E-01  0.00000000E+00  0.00000000E+00 -4.65028495E-01
  0.00000000E+00  0.00000000E+00 -5.41452554E-01  0.00000000E+00  0.00000000E+00
  7.67599042E-01  0.00000000E+00  0.00000000E+00  6.31858005E-01  0.00000000E+00
  0.00000000E+00  1.98567131E-01  0.00000000E+00  0.00000000E+00  1.31697531E-02
  0.00000000E+00  0.00000000E+00  1.06513932E-03  0.00000000E+00  0.00000000E+00
 -2.42446496E-04  0.00000000E+00  0.00000000E+00  3.49947770E-05  0.00000000E+00
  0.00000000E+00  0.00000000E+00  0.00000000E+00  0.00000000E+00  0.00000000E+00
  0.00000000E+00  0.00000000E+00  0.00000000E+00  0.00000000E+00  0.00000000E+00
  0.00000000E+00  0.00000000E+00  0.00000000E+00  0.00000000E+00  0.00000000E+00
  0.00000000E+00  0.00000000E+00  0.00000000E+00  0.00000000E+00  0.00000000E+00
  0.00000000E+00  0.00000000E+00  0.00000000E+00  0.00000000E+00  0.00000000E+00
  0.00000000E+00  0.00000000E+00  0.00000000E+00  0.00000000E+00  0.00000000E+00
  0.00000000E+00  0.00000000E+00  0.00000000E+00  0.00000000E+00  0.00000000E+00
  0.00000000E+00  0.00000000E+00  0.00000000E+00  0.00000000E+00  0.00000000E+00
  0.00000000E+00  0.00000000E+00  0.00000000E+00  0.00000000E+00  0.00000000E+00
  0.00000000E+00  0.00000000E+00  0.00000000E+00  0.00000000E+00  0.00000000E+00
  0.00000000E+00  0.00000000E+00  0.00000000E+00  0.00000000E+00  0.00000000E+00
MO   12                    OCC NO =   1.00000000 ORB. ENERGY = -146.30878064
  3.57977581E+00  2.66065602E+00  2.93320946E+00  3.39904102E+00  4.20150004E+00
  5.49113987E+00  7.20461244E+00  9.02759324E+00  9.39632988E+00  7.01870739E+00
  2.82511614E+00  7.88614795E-02  2.91101126E-01  5.98869482E-01  5.38272643E-01
  5.01469150E-01 -2.32862327E-02  1.13411098E-02 -3.84309621E-03  1.37254104E-03
 -2.93753131E-04  5.18005671E-05 -2.82564914E-05  4.31817784E-06  0.00000000E+00
  0.00000000E+00  0.00000000E+00  0.00000000E+00  0.00000000E+00  0.00000000E+00
  0.00000000E+00  0.00000000E+00  0.00000000E+00  0.00000000E+00  0.00000000E+00
  0.00000000E+00  0.00000000E+00  0.00000000E+00  0.00000000E+00  0.00000000E+00
  0.00000000E+00  0.00000000E+00  0.00000000E+00  0.00000000E+00  0.00000000E+00
  0.00000000E+00  0.00000000E+00  0.00000000E+00  0.00000000E+00  0.00000000E+00
  0.00000000E+00  0.00000000E+00  0.00000000E+00  0.00000000E+00  0.00000000E+00
  0.00000000E+00  0.00000000E+00  0.00000000E+00  0.00000000E+00  0.00000000E+00
  0.00000000E+00  0.00000000E+00  0.00000000E+00  0.00000000E+00  0.00000000E+00
  0.00000000E+00  0.00000000E+00  0.00000000E+00  0.00000000E+00  0.00000000E+00
  0.00000000E+00  0.00000000E+00  0.00000000E+00  0.00000000E+00  0.00000000E+00
  0.00000000E+00  0.00000000E+00  0.00000000E+00  0.00000000E+00  0.00000000E+00
  0.00000000E+00  0.00000000E+00  0.00000000E+00  0.00000000E+00  0.00000000E+00
  0.00000000E+00  0.00000000E+00  0.00000000E+00  0.00000000E+00  0.00000000E+00
  0.00000000E+00  0.00000000E+00  0.00000000E+00  0.00000000E+00  0.00000000E+00
  0.00000000E+00  0.00000000E+00  0.00000000E+00  0.00000000E+00  0.00000000E+00
  0.00000000E+00  0.00000000E+00  0.00000000E+00  0.00000000E+00  0.00000000E+00
  0.00000000E+00  0.00000000E+00  0.00000000E+00  0.00000000E+00  0.00000000E+00
  0.00000000E+00  0.00000000E+00  0.00000000E+00  0.00000000E+00  0.00000000E+00
  0.00000000E+00  0.00000000E+00  0.00000000E+00  0.00000000E+00  0.00000000E+00
  0.00000000E+00  0.00000000E+00  0.00000000E+00  0.00000000E+00  0.00000000E+00
  0.00000000E+00  0.00000000E+00  0.00000000E+00  0.00000000E+00  0.00000000E+00
  0.00000000E+00  0.00000000E+00  0.00000000E+00  0.00000000E+00  0.00000000E+00
  0.00000000E+00  0.00000000E+00  0.00000000E+00  0.00000000E+00  0.00000000E+00
MO   13                    OCC NO =   1.00000000 ORB. ENERGY = -15.66560187
 -1.06115608E+00 -7.88700594E-01 -8.69493848E-01 -1.00758071E+00 -1.24545434E+00
 -1.62774340E+00 -2.13566958E+00 -2.67605737E+00 -2.78536230E+00 -2.08056158E+00
 -8.37451653E-01 -1.90986503E-01 -7.04987866E-01 -1.45034038E+00 -1.30358713E+00
  3.60443314E-01  1.81394426E+00  9.98663997E-01  1.11175114E-01 -8.04975438E-03
  1.58312816E-03 -2.44886935E-04  1.32826793E-04 -2.02487581E-05  0.00000000E+00
  0.00000000E+00  0.00000000E+00  0.00000000E+00  0.00000000E+00  0.00000000E+00