atomref-proatoms Ce_q0_mult1_nist x2c-QZVPall
GAUSSIAN             80 MOL ORBITALS    437 PRIMITIVES        1 NUCLEI
  Ce   1    (CENTRE  1)   0.00000000  0.00000000  0.00000000  CHARGE = 58.0
CENTRE ASSIGNMENTS    1  1  1  1  1  1  1  1  1  1  1  1  1  1  1  1  1  1  1  1
CENTRE ASSIGNMENTS    1  1  1  1  1  1  1  1  1  1  1  1  1  1  1  1  1  1  1  1
CENTRE ASSIGNMENTS    1  1  1  1  1  1  1  1  1  1  1  1  1  1  1  1  1  1  1  1
CENTRE ASSIGNMENTS    1  1  1  1  1  1  1  1  1  1  1  1  1  1  1  1  1  1  1  1
CENTRE ASSIGNMENTS    1  1  1  1  1  1  1  1  1  1  1  1  1  1  1  1  1  1  1  1
CENTRE ASSIGNMENTS    1  1  1  1  1  1  1  1  1  1  1  1  1  1  1  1  1  1  1  1
CENTRE ASSIGNMENTS    1  1  1  1  1  1  1  1  1  1  1  1  1  1  1  1  1  1  1  1
CENTRE ASSIGNMENTS    1  1  1  1  1  1  1  1  1  1  1  1  1  1  1  1  1  1  1  1
CENTRE ASSIGNMENTS    1  1  1  1  1  1  1  1  1  1  1  1  1  1  1  1  1  1  1  1
CENTRE ASSIGNMENTS    1  1  1  1  1  1  1  1  1  1  1  1  1  1  1  1  1  1  1  1
CENTRE ASSIGNMENTS    1  1  1  1  1  1  1  1  1  1  1  1  1  1  1  1  1  1  1  1
CENTRE ASSIGNMENTS    1  1  1  1  1  1  1  1  1  1  1  1  1  1  1  1  1  1  1  1
CENTRE ASSIGNMENTS    1  1  1  1  1  1  1  1  1  1  1  1  1  1  1  1  1  1  1  1
CENTRE ASSIGNMENTS    1  1  1  1  1  1  1  1  1  1  1  1  1  1  1  1  1  1  1  1
CENTRE ASSIGNMENTS    1  1  1  1  1  1  1  1  1  1  1  1  1  1  1  1  1  1  1  1
CENTRE ASSIGNMENTS    1  1  1  1  1  1  1  1  1  1  1  1  1  1  1  1  1  1  1  1
CENTRE ASSIGNMENTS    1  1  1  1  1  1  1  1  1  1  1  1  1  1  1  1  1  1  1  1
CENTRE ASSIGNMENTS    1  1  1  1  1  1  1  1  1  1  1  1  1  1  1  1  1  1  1  1
CENTRE ASSIGNMENTS    1  1  1  1  1  1  1  1  1  1  1  1  1  1  1  1  1  1  1  1
CENTRE ASSIGNMENTS    1  1  1  1  1  1  1  1  1  1  1  1  1  1  1  1  1  1  1  1
CENTRE ASSIGNMENTS    1  1  1  1  1  1  1  1  1  1  1  1  1  1  1  1  1  1  1  1
CENTRE ASSIGNMENTS    1  1  1  1  1  1  1  1  1  1  1  1  1  1  1  1  1
TYPE ASSIGNMENTS      1  1  1  1  1  1  1  1  1  1  1  1  1  1  1  1  1  1  1  1
TYPE ASSIGNMENTS      1  1  1  1  1  1  1  1  1  1  2  3  4  2  3  4  2  3  4  2
TYPE ASSIGNMENTS      3  4  2  3  4  2  3  4  2  3  4  2  3  4  2  3  4  2  3  4
TYPE ASSIGNMENTS      2  3  4  2  3  4  2  3  4  2  3  4  2  3  4  2  3  4  2  3
TYPE ASSIGNMENTS      4  2  3  4  2  3  4  2  3  4  2  3  4  2  3  4  2  3  4  2
TYPE ASSIGNMENTS      3  4  2  3  4  2  3  4  2  3  4  2  3  4  2  3  4  2  3  4
TYPE ASSIGNMENTS      2  3  4  2  3  4  2  3  4  2  3  4  5  8  9  6 10  7  5  8
TYPE ASSIGNMENTS      9  6 10  7  5  8  9  6 10  7  5  8  9  6 10  7  5  8  9  6
TYPE ASSIGNMENTS     10  7  5  8  9  6 10  7  5  8  9  6 10  7  5  8  9  6 10  7
TYPE ASSIGNMENTS      5  8  9  6 10  7  5  8  9  6 10  7  5  8  9  6 10  7  5  8
TYPE ASSIGNMENTS      9  6 10  7  5  8  9  6 10  7  5  8  9  6 10  7  5  8  9  6
TYPE ASSIGNMENTS     10  7  5  8  9  6 10  7  5  8  9  6 10  7  5  8  9  6 10  7
TYPE ASSIGNMENTS      5  8  9  6 10  7  5  8  9  6 10  7 11 14 15 17 20 18 12 16
TYPE ASSIGNMENTS     19 13 11 14 15 17 20 18 12 16 19 13 11 14 15 17 20 18 12 16
TYPE ASSIGNMENTS     19 13 11 14 15 17 20 18 12 16 19 13 11 14 15 17 20 18 12 16
TYPE ASSIGNMENTS     19 13 11 14 15 17 20 18 12 16 19 13 11 14 15 17 20 18 12 16
TYPE ASSIGNMENTS     19 13 11 14 15 17 20 18 12 16 19 13 11 14 15 17 20 18 12 16
TYPE ASSIGNMENTS     19 13 11 14 15 17 20 18 12 16 19 13 11 14 15 17 20 18 12 16
TYPE ASSIGNMENTS     19 13 21 24 25 30 33 31 26 34 35 28 22 27 32 29 23 21 24 25
TYPE ASSIGNMENTS     30 33 31 26 34 35 28 22 27 32 29 23 21 24 25 30 33 31 26 34
TYPE ASSIGNMENTS     35 28 22 27 32 29 23 21 24 25 30 33 31 26 34 35 28 22 27 32
TYPE ASSIGNMENTS     29 23 21 24 25 30 33 31 26 34 35 28 22 27 32 29 23
EXPONENTS  6.7402623E+07 1.8858035E+07 5.7241068E+06 1.7994807E+06 6.1197590E+05
EXPONENTS  2.1931650E+05 8.2592955E+04 3.2000736E+04 1.3757379E+04 6.1095910E+03
EXPONENTS  2.7935604E+03 1.0777872E+03 5.4266108E+04 1.2501920E+04 4.1604993E+03
EXPONENTS  1.5277679E+03 6.0981962E+02 3.1259920E+02 1.1854096E+02 7.0463115E+01
EXPONENTS  4.2992229E+01 1.8448419E+01 9.8516060E+00 4.3329964E+00 2.2283053E+00
EXPONENTS  8.4591207E-01 4.7622811E-01 2.2085346E-01 6.5014769E-02 2.5471465E-02
EXPONENTS  1.4670000E+02 1.4670000E+02 1.4670000E+02 2.4099547E+06 2.4099547E+06
EXPONENTS  2.4099547E+06 7.2949453E+05 7.2949453E+05 7.2949453E+05 2.3097601E+05
EXPONENTS  2.3097601E+05 2.3097601E+05 7.6496823E+04 7.6496823E+04 7.6496823E+04
EXPONENTS  2.6500350E+04 2.6500350E+04 2.6500350E+04 9.6026587E+03 9.6026587E+03
EXPONENTS  9.6026587E+03 3.6396789E+03 3.6396789E+03 3.6396789E+03 1.4430929E+03
EXPONENTS  1.4430929E+03 1.4430929E+03 5.9629064E+02 5.9629064E+02 5.9629064E+02
EXPONENTS  2.6596379E+02 2.6596379E+02 2.6596379E+02 1.2747148E+02 1.2747148E+02
EXPONENTS  1.2747148E+02 6.3585108E+01 6.3585108E+01 6.3585108E+01 3.1276102E+01
EXPONENTS  3.1276102E+01 3.1276102E+01 9.4072392E+02 9.4072392E+02 9.4072392E+02
EXPONENTS  3.2850952E+02 3.2850952E+02 3.2850952E+02 1.4449060E+02 1.4449060E+02
EXPONENTS  1.4449060E+02 3.6956609E+01 3.6956609E+01 3.6956609E+01 1.9058115E+01
EXPONENTS  1.9058115E+01 1.9058115E+01 9.8154535E+00 9.8154535E+00 9.8154535E+00
EXPONENTS  4.3984486E+00 4.3984486E+00 4.3984486E+00 5.8168903E+01 5.8168903E+01
EXPONENTS  5.8168903E+01 1.8454021E+01 1.8454021E+01 1.8454021E+01 5.8489271E+00
EXPONENTS  5.8489271E+00 5.8489271E+00 3.2204805E+00 3.2204805E+00 3.2204805E+00
EXPONENTS  1.6030538E+00 1.6030538E+00 1.6030538E+00 2.7615331E+00 2.7615331E+00
EXPONENTS  2.7615331E+00 9.1200545E-01 9.1200545E-01 9.1200545E-01 5.0167535E-01
EXPONENTS  5.0167535E-01 5.0167535E-01 5.7906087E-01 5.7906087E-01 5.7906087E-01
EXPONENTS  2.4073657E-01 2.4073657E-01 2.4073657E-01 1.0198249E-01 1.0198249E-01
EXPONENTS  1.0198249E-01 4.1372581E-02 4.1372581E-02 4.1372581E-02 1.6274682E-02
EXPONENTS  1.6274682E-02 1.6274682E-02 3.3425058E+03 3.3425058E+03 3.3425058E+03
EXPONENTS  3.3425058E+03 3.3425058E+03 3.3425058E+03 9.8216348E+02 9.8216348E+02
EXPONENTS  9.8216348E+02 9.8216348E+02 9.8216348E+02 9.8216348E+02 3.8162220E+02
EXPONENTS  3.8162220E+02 3.8162220E+02 3.8162220E+02 3.8162220E+02 3.8162220E+02
EXPONENTS  1.6958911E+02 1.6958911E+02 1.6958911E+02 1.6958911E+02 1.6958911E+02
EXPONENTS  1.6958911E+02 8.1616889E+01 8.1616889E+01 8.1616889E+01 8.1616889E+01
EXPONENTS  8.1616889E+01 8.1616889E+01 4.1197856E+01 4.1197856E+01 4.1197856E+01
EXPONENTS  4.1197856E+01 4.1197856E+01 4.1197856E+01 2.1378738E+01 2.1378738E+01
EXPONENTS  2.1378738E+01 2.1378738E+01 2.1378738E+01 2.1378738E+01 1.1028921E+01
EXPONENTS  1.1028921E+01 1.1028921E+01 1.1028921E+01 1.1028921E+01 1.1028921E+01
EXPONENTS  2.0000000E+01 2.0000000E+01 2.0000000E+01 2.0000000E+01 2.0000000E+01
EXPONENTS  2.0000000E+01 1.4215224E+02 1.4215224E+02 1.4215224E+02 1.4215224E+02
EXPONENTS  1.4215224E+02 1.4215224E+02 5.8428575E+01 5.8428575E+01 5.8428575E+01
EXPONENTS  5.8428575E+01 5.8428575E+01 5.8428575E+01 1.3591396E+01 1.3591396E+01
EXPONENTS  1.3591396E+01 1.3591396E+01 1.3591396E+01 1.3591396E+01 5.5635936E+00
EXPONENTS  5.5635936E+00 5.5635936E+00 5.5635936E+00 5.5635936E+00 5.5635936E+00
EXPONENTS  7.6533192E+00 7.6533192E+00 7.6533192E+00 7.6533192E+00 7.6533192E+00
EXPONENTS  7.6533192E+00 3.1488477E+00 3.1488477E+00 3.1488477E+00 3.1488477E+00
EXPONENTS  3.1488477E+00 3.1488477E+00 1.5247989E+00 1.5247989E+00 1.5247989E+00
EXPONENTS  1.5247989E+00 1.5247989E+00 1.5247989E+00 6.4807104E-01 6.4807104E-01
EXPONENTS  6.4807104E-01 6.4807104E-01 6.4807104E-01 6.4807104E-01 2.4177721E-01
EXPONENTS  2.4177721E-01 2.4177721E-01 2.4177721E-01 2.4177721E-01 2.4177721E-01
EXPONENTS  8.3484836E-02 8.3484836E-02 8.3484836E-02 8.3484836E-02 8.3484836E-02
EXPONENTS  8.3484836E-02 2.6170318E-02 2.6170318E-02 2.6170318E-02 2.6170318E-02
EXPONENTS  2.6170318E-02 2.6170318E-02 1.6226784E+02 1.6226784E+02 1.6226784E+02
EXPONENTS  1.6226784E+02 1.6226784E+02 1.6226784E+02 1.6226784E+02 1.6226784E+02
EXPONENTS  1.6226784E+02 1.6226784E+02 6.2275567E+01 6.2275567E+01 6.2275567E+01
EXPONENTS  6.2275567E+01 6.2275567E+01 6.2275567E+01 6.2275567E+01 6.2275567E+01
EXPONENTS  6.2275567E+01 6.2275567E+01 3.0229278E+01 3.0229278E+01 3.0229278E+01
EXPONENTS  3.0229278E+01 3.0229278E+01 3.0229278E+01 3.0229278E+01 3.0229278E+01
EXPONENTS  3.0229278E+01 3.0229278E+01 1.4988295E+01 1.4988295E+01 1.4988295E+01
EXPONENTS  1.4988295E+01 1.4988295E+01 1.4988295E+01 1.4988295E+01 1.4988295E+01
EXPONENTS  1.4988295E+01 1.4988295E+01 7.5552750E+00 7.5552750E+00 7.5552750E+00
EXPONENTS  7.5552750E+00 7.5552750E+00 7.5552750E+00 7.5552750E+00 7.5552750E+00
EXPONENTS  7.5552750E+00 7.5552750E+00 3.8773268E+00 3.8773268E+00 3.8773268E+00
EXPONENTS  3.8773268E+00 3.8773268E+00 3.8773268E+00 3.8773268E+00 3.8773268E+00
EXPONENTS  3.8773268E+00 3.8773268E+00 1.9825417E+00 1.9825417E+00 1.9825417E+00
EXPONENTS  1.9825417E+00 1.9825417E+00 1.9825417E+00 1.9825417E+00 1.9825417E+00
EXPONENTS  1.9825417E+00 1.9825417E+00 9.6868455E-01 9.6868455E-01 9.6868455E-01
EXPONENTS  9.6868455E-01 9.6868455E-01 9.6868455E-01 9.6868455E-01 9.6868455E-01
EXPONENTS  9.6868455E-01 9.6868455E-01 4.3202353E-01 4.3202353E-01 4.3202353E-01
EXPONENTS  4.3202353E-01 4.3202353E-01 4.3202353E-01 4.3202353E-01 4.3202353E-01
EXPONENTS  4.3202353E-01 4.3202353E-01 1.6757489E-01 1.6757489E-01 1.6757489E-01
EXPONENTS  1.6757489E-01 1.6757489E-01 1.6757489E-01 1.6757489E-01 1.6757489E-01
EXPONENTS  1.6757489E-01 1.6757489E-01 5.6000000E-02 5.6000000E-02 5.6000000E-02
EXPONENTS  5.6000000E-02 5.6000000E-02 5.6000000E-02 5.6000000E-02 5.6000000E-02
EXPONENTS  5.6000000E-02 5.6000000E-02 1.9451800E+01 1.9451800E+01 1.9451800E+01
EXPONENTS  1.9451800E+01 1.9451800E+01 1.9451800E+01 1.9451800E+01 1.9451800E+01
EXPONENTS  1.9451800E+01 1.9451800E+01 1.9451800E+01 1.9451800E+01 1.9451800E+01
EXPONENTS  1.9451800E+01 1.9451800E+01 8.6013000E+00 8.6013000E+00 8.6013000E+00
EXPONENTS  8.6013000E+00 8.6013000E+00 8.6013000E+00 8.6013000E+00 8.6013000E+00
EXPONENTS  8.6013000E+00 8.6013000E+00 8.6013000E+00 8.6013000E+00 8.6013000E+00
EXPONENTS  8.6013000E+00 8.6013000E+00 3.8049000E+00 3.8049000E+00 3.8049000E+00
EXPONENTS  3.8049000E+00 3.8049000E+00 3.8049000E+00 3.8049000E+00 3.8049000E+00
EXPONENTS  3.8049000E+00 3.8049000E+00 3.8049000E+00 3.8049000E+00 3.8049000E+00
EXPONENTS  3.8049000E+00 3.8049000E+00 1.6176000E+00 1.6176000E+00 1.6176000E+00
EXPONENTS  1.6176000E+00 1.6176000E+00 1.6176000E+00 1.6176000E+00 1.6176000E+00
EXPONENTS  1.6176000E+00 1.6176000E+00 1.6176000E+00 1.6176000E+00 1.6176000E+00
EXPONENTS  1.6176000E+00 1.6176000E+00 3.7110000E-01 3.7110000E-01 3.7110000E-01
EXPONENTS  3.7110000E-01 3.7110000E-01 3.7110000E-01 3.7110000E-01 3.7110000E-01
EXPONENTS  3.7110000E-01 3.7110000E-01 3.7110000E-01 3.7110000E-01 3.7110000E-01
EXPONENTS  3.7110000E-01 3.7110000E-01
MO    1                     OCC NO =   1.00000000 ORB. ENERGY = -1480.93278741
  7.02176269E+01  6.29583456E+01  6.01635565E+01  5.20453027E+01  4.72595049E+01
  4.44018094E+01  4.28067251E+01  4.20553390E+01  4.25284910E+01  3.87563684E+01
  3.53124189E+01  2.02054502E+01  3.44213203E+00  5.96855024E+00  1.65660268E+01
  3.22513393E+01  2.47685285E+01  9.67866661E+00  1.15648746E+00 -4.74844411E-01
  1.67910350E-01 -3.51759953E-02  1.37902622E-02 -4.01800631E-03  1.44791347E-03
 -4.24178179E-04  1.96221045E-04 -3.61930147E-05  3.71325341E-06 -6.07148636E-07
  0.00000000E+00  0.00000000E+00  0.00000000E+00  0.00000000E+00  0.00000000E+00
  0.00000000E+00  0.00000000E+00  0.00000000E+00  0.00000000E+00  0.00000000E+00
  0.00000000E+00  0.00000000E+00  0.00000000E+00  0.00000000E+00  0.00000000E+00
  0.00000000E+00  0.00000000E+00  0.00000000E+00  0.00000000E+00  0.00000000E+00
  0.00000000E+00  0.00000000E+00  0.00000000E+00  0.00000000E+00  0.00000000E+00
  0.00000000E+00  0.00000000E+00  0.00000000E+00  0.00000000E+00  0.00000000E+00
  0.00000000E+00  0.00000000E+00  0.00000000E+00  0.00000000E+00  0.00000000E+00
  0.00000000E+00  0.00000000E+00  0.00000000E+00  0.00000000E+00  0.00000000E+00
  0.00000000E+00  0.00000000E+00  0.00000000E+00  0.00000000E+00  0.00000000E+00
  0.00000000E+00  0.00000000E+00  0.00000000E+00  0.00000000E+00  0.00000000E+00
  0.00000000E+00  0.00000000E+00  0.00000000E+00  0.00000000E+00  0.00000000E+00
  0.00000000E+00  0.00000000E+00  0.00000000E+00  0.00000000E+00  0.00000000E+00
  0.00000000E+00  0.00000000E+00  0.00000000E+00  0.00000000E+00  0.00000000E+00
  0.00000000E+00  0.00000000E+00  0.00000000E+00  0.00000000E+00  0.00000000E+00
  0.00000000E+00  0.00000000E+00  0.00000000E+00  0.00000000E+00  0.00000000E+00
  0.00000000E+00  0.00000000E+00  0.00000000E+00  0.00000000E+00  0.00000000E+00
  0.00000000E+00  0.00000000E+00  0.00000000E+00  0.00000000E+00  0.00000000E+00
  0.00000000E+00  0.00000000E+00  0.00000000E+00  0.00000000E+00  0.00000000E+00
  0.00000000E+00  0.00000000E+00  0.00000000E+00  0.00000000E+00  0.00000000E+00
  0.00000000E+00  0.00000000E+00  0.00000000E+00  0.00000000E+00  0.00000000E+00
  0.00000000E+00  0.00000000E+00  0.00000000E+00  0.00000000E+00  0.00000000E+00
  0.00000000E+00  0.00000000E+00  0.00000000E+00  0.00000000E+00  0.00000000E+00
  0.00000000E+00  0.00000000E+00  0.00000000E+00  0.00000000E+00  0.00000000E+00
  0.00000000E+00  0.00000000E+00  0.00000000E+00  0.00000000E+00  0.00000000E+00
  0.00000000E+00  0.00000000E+00  0.00000000E+00  0.00000000E+00  0.00000000E+00
  0.00000000E+00  0.00000000E+00  0.00000000E+00  0.00000000E+00  0.00000000E+00
  0.00000000E+00  0.00000000E+00  0.00000000E+00  0.00000000E+00  0.00000000E+00
  0.00000000E+00  0.00000000E+00  0.00000000E+00  0.00000000E+00  0.00000000E+00
  0.00000000E+00  0.00000000E+00  0.00000000E+00  0.00000000E+00  0.00000000E+00
  0.00000000E+00  0.00000000E+00  0.00000000E+00  0.00000000E+00  0.00000000E+00
  0.00000000E+00  0.00000000E+00  0.00000000E+00  0.00000000E+00  0.00000000E+00
  0.00000000E+00  0.00000000E+00  0.00000000E+00  0.00000000E+00  0.00000000E+00
  0.00000000E+00  0.00000000E+00  0.00000000E+00  0.00000000E+00  0.00000000E+00
  0.00000000E+00  0.00000000E+00  0.00000000E+00  0.00000000E+00  0.00000000E+00
  0.00000000E+00  0.00000000E+00  0.00000000E+00  0.00000000E+00  0.00000000E+00
  0.00000000E+00  0.00000000E+00  0.00000000E+00  0.00000000E+00  0.00000000E+00
  0.00000000E+00  0.00000000E+00  0.00000000E+00  0.00000000E+00  0.00000000E+00
  0.00000000E+00  0.00000000E+00  0.00000000E+00  0.00000000E+00  0.00000000E+00
  0.00000000E+00  0.00000000E+00  0.00000000E+00  0.00000000E+00  0.00000000E+00
  0.00000000E+00  0.00000000E+00  0.00000000E+00  0.00000000E+00  0.00000000E+00
  0.00000000E+00  0.00000000E+00  0.00000000E+00  0.00000000E+00  0.00000000E+00
  0.00000000E+00  0.00000000E+00  0.00000000E+00  0.00000000E+00  0.00000000E+00
  0.00000000E+00  0.00000000E+00  0.00000000E+00  0.00000000E+00  0.00000000E+00
  0.00000000E+00  0.00000000E+00  0.00000000E+00  0.00000000E+00  0.00000000E+00
  0.00000000E+00  0.00000000E+00  0.00000000E+00  0.00000000E+00  0.00000000E+00
  0.00000000E+00  0.00000000E+00  0.00000000E+00  0.00000000E+00  0.00000000E+00
  0.00000000E+00  0.00000000E+00  0.00000000E+00  0.00000000E+00  0.00000000E+00
  0.00000000E+00  0.00000000E+00  0.00000000E+00  0.00000000E+00  0.00000000E+00
  0.00000000E+00  0.00000000E+00  0.00000000E+00  0.00000000E+00  0.00000000E+00
  0.00000000E+00  0.00000000E+00  0.00000000E+00  0.00000000E+00  0.00000000E+00
  0.00000000E+00  0.00000000E+00  0.00000000E+00  0.00000000E+00  0.00000000E+00
  0.00000000E+00  0.00000000E+00  0.00000000E+00  0.00000000E+00  0.00000000E+00
  0.00000000E+00  0.00000000E+00  0.00000000E+00  0.00000000E+00  0.00000000E+00
  0.00000000E+00  0.00000000E+00  0.00000000E+00  0.00000000E+00  0.00000000E+00
  0.00000000E+00  0.00000000E+00  0.00000000E+00  0.00000000E+00  0.00000000E+00
  0.00000000E+00  0.00000000E+00  0.00000000E+00  0.00000000E+00  0.00000000E+00
  0.00000000E+00  0.00000000E+00  0.00000000E+00  0.00000000E+00  0.00000000E+00
  0.00000000E+00  0.00000000E+00  0.00000000E+00  0.00000000E+00  0.00000000E+00
  0.00000000E+00  0.00000000E+00  0.00000000E+00  0.00000000E+00  0.00000000E+00
  0.00000000E+00  0.00000000E+00  0.00000000E+00  0.00000000E+00  0.00000000E+00
  0.00000000E+00  0.00000000E+00  0.00000000E+00  0.00000000E+00  0.00000000E+00
  0.00000000E+00  0.00000000E+00  0.00000000E+00  0.00000000E+00  0.00000000E+00
  0.00000000E+00  0.00000000E+00  0.00000000E+00  0.00000000E+00  0.00000000E+00
  0.00000000E+00  0.00000000E+00  0.00000000E+00  0.00000000E+00  0.00000000E+00
  0.00000000E+00  0.00000000E+00  0.00000000E+00  0.00000000E+00  0.00000000E+00
  0.00000000E+00  0.00000000E+00  0.00000000E+00  0.00000000E+00  0.00000000E+00
  0.00000000E+00  0.00000000E+00  0.00000000E+00  0.00000000E+00  0.00000000E+00
  0.00000000E+00  0.00000000E+00  0.00000000E+00  0.00000000E+00  0.00000000E+00
  0.00000000E+00  0.00000000E+00  0.00000000E+00  0.00000000E+00  0.00000000E+00
  0.00000000E+00  0.00000000E+00  0.00000000E+00  0.00000000E+00  0.00000000E+00
  0.00000000E+00  0.00000000E+00  0.00000000E+00  0.00000000E+00  0.00000000E+00
  0.00000000E+00  0.00000000E+00  0.00000000E+00  0.00000000E+00  0.00000000E+00
  0.00000000E+00  0.00000000E+00  0.00000000E+00  0.00000000E+00  0.00000000E+00
  0.00000000E+00  0.00000000E+00  0.00000000E+00  0.00000000E+00  0.00000000E+00
  0.00000000E+00  0.00000000E+00  0.00000000E+00  0.00000000E+00  0.00000000E+00
  0.00000000E+00  0.00000000E+00  0.00000000E+00  0.00000000E+00  0.00000000E+00
  0.00000000E+00  0.00000000E+00  0.00000000E+00  0.00000000E+00  0.00000000E+00
  0.00000000E+00  0.00000000E+00  0.00000000E+00  0.00000000E+00  0.00000000E+00
  0.00000000E+00  0.00000000E+00  0.00000000E+00  0.00000000E+00  0.00000000E+00
  0.00000000E+00  0.00000000E+00  0.00000000E+00  0.00000000E+00  0.00000000E+00
  0.00000000E+00  0.00000000E+00  0.00000000E+00  0.00000000E+00  0.00000000E+00
  0.00000000E+00  0.00000000E+00
MO    2                     OCC NO =   1.00000000 ORB. ENERGY = -238.16688236
 -2.52521140E+01 -2.26414846E+01 -2.16364046E+01 -1.87168660E+01 -1.69957667E+01
 -1.59680639E+01 -1.53944294E+01 -1.51242111E+01 -1.52943691E+01 -1.39378141E+01
 -1.26992789E+01 -7.26641376E+00 -1.87475081E+00 -3.25075978E+00 -9.02265569E+00
 -1.75656319E+01 -1.72496303E+01 -3.66702698E+00  9.69861867E+00  5.87737279E+00
  4.56694565E+00  3.88674425E-01 -4.56279329E-02  9.07588094E-03 -2.91063488E-03
  7.78735589E-04 -3.52386292E-04  6.43784626E-05 -6.55613756E-06  1.07061906E-06
  0.00000000E+00  0.00000000E+00  0.00000000E+00  0.00000000E+00  0.00000000E+00
  0.00000000E+00  0.00000000E+00  0.00000000E+00  0.00000000E+00  0.00000000E+00
  0.00000000E+00  0.00000000E+00  0.00000000E+00  0.00000000E+00  0.00000000E+00
  0.00000000E+00  0.00000000E+00  0.00000000E+00  0.00000000E+00  0.00000000E+00
  0.00000000E+00  0.00000000E+00  0.00000000E+00  0.00000000E+00  0.00000000E+00
  0.00000000E+00  0.00000000E+00  0.00000000E+00  0.00000000E+00  0.00000000E+00
  0.00000000E+00  0.00000000E+00  0.00000000E+00  0.00000000E+00  0.00000000E+00
  0.00000000E+00  0.00000000E+00  0.00000000E+00  0.00000000E+00  0.00000000E+00
  0.00000000E+00  0.00000000E+00  0.00000000E+00  0.00000000E+00  0.00000000E+00
  0.00000000E+00  0.00000000E+00  0.00000000E+00  0.00000000E+00  0.00000000E+00
  0.00000000E+00  0.00000000E+00  0.00000000E+00  0.00000000E+00  0.00000000E+00
  0.00000000E+00  0.00000000E+00  0.00000000E+00  0.00000000E+00  0.00000000E+00
  0.00000000E+00  0.00000000E+00  0.00000000E+00  0.00000000E+00  0.00000000E+00
  0.00000000E+00  0.00000000E+00  0.00000000E+00  0.00000000E+00  0.00000000E+00
  0.00000000E+00  0.00000000E+00  0.00000000E+00  0.00000000E+00  0.00000000E+00
  0.00000000E+00  0.00000000E+00  0.00000000E+00  0.00000000E+00  0.00000000E+00
  0.00000000E+00  0.00000000E+00  0.00000000E+00  0.00000000E+00  0.00000000E+00
  0.00000000E+00  0.00000000E+00  0.00000000E+00  0.00000000E+00  0.00000000E+00
  0.00000000E+00  0.00000000E+00  0.00000000E+00  0.00000000E+00  0.00000000E+00
  0.00000000E+00  0.00000000E+00  0.00000000E+00  0.00000000E+00  0.00000000E+00
  0.00000000E+00  0.00000000E+00  0.00000000E+00  0.00000000E+00  0.00000000E+00
  0.00000000E+00  0.00000000E+00  0.00000000E+00  0.00000000E+00  0.00000000E+00
  0.00000000E+00  0.00000000E+00  0.00000000E+00  0.00000000E+00  0.00000000E+00
  0.00000000E+00  0.00000000E+00  0.00000000E+00  0.00000000E+00  0.00000000E+00
  0.00000000E+00  0.00000000E+00  0.00000000E+00  0.00000000E+00  0.00000000E+00
  0.00000000E+00  0.00000000E+00  0.00000000E+00  0.00000000E+00  0.00000000E+00
  0.00000000E+00  0.00000000E+00  0.00000000E+00  0.00000000E+00  0.00000000E+00
  0.00000000E+00  0.00000000E+00  0.00000000E+00  0.00000000E+00  0.00000000E+00
  0.00000000E+00  0.00000000E+00  0.00000000E+00  0.00000000E+00  0.00000000E+00
  0.00000000E+00  0.00000000E+00  0.00000000E+00  0.00000000E+00  0.00000000E+00
  0.00000000E+00  0.00000000E+00  0.00000000E+00  0.00000000E+00  0.00000000E+00
  0.00000000E+00  0.00000000E+00  0.00000000E+00  0.00000000E+00  0.00000000E+00
  0.00000000E+00  0.00000000E+00  0.00000000E+00  0.00000000E+00  0.00000000E+00
  0.00000000E+00  0.00000000E+00  0.00000000E+00  0.00000000E+00  0.00000000E+00
  0.00000000E+00  0.00000000E+00  0.00000000E+00  0.00000000E+00  0.00000000E+00
  0.00000000E+00  0.00000000E+00  0.00000000E+00  0.00000000E+00  0.00000000E+00
  0.00000000E+00  0.00000000E+00  0.00000000E+00  0.00000000E+00  0.00000000E+00
  0.00000000E+00  0.00000000E+00  0.00000000E+00  0.00000000E+00  0.00000000E+00
  0.00000000E+00  0.00000000E+00  0.00000000E+00  0.00000000E+00  0.00000000E+00
  0.00000000E+00  0.00000000E+00  0.00000000E+00  0.00000000E+00  0.00000000E+00
  0.00000000E+00  0.00000000E+00  0.00000000E+00  0.00000000E+00  0.00000000E+00
  0.00000000E+00  0.00000000E+00  0.00000000E+00  0.00000000E+00  0.00000000E+00
  0.00000000E+00  0.00000000E+00  0.00000000E+00  0.00000000E+00  0.00000000E+00
  0.00000000E+00  0.00000000E+00  0.00000000E+00  0.00000000E+00  0.00000000E+00
  0.00000000E+00  0.00000000E+00  0.00000000E+00  0.00000000E+00  0.00000000E+00
  0.00000000E+00  0.00000000E+00  0.00000000E+00  0.00000000E+00  0.00000000E+00
  0.00000000E+00  0.00000000E+00  0.00000000E+00  0.00000000E+00  0.00000000E+00
  0.00000000E+00  0.00000000E+00  0.00000000E+00  0.00000000E+00  0.00000000E+00
  0.00000000E+00  0.00000000E+00  0.00000000E+00  0.00000000E+00  0.00000000E+00
  0.00000000E+00  0.00000000E+00  0.00000000E+00  0.00000000E+00  0.00000000E+00
  0.00000000E+00  0.00000000E+00  0.00000000E+00  0.00000000E+00  0.00000000E+00
  0.00000000E+00  0.00000000E+00  0.00000000E+00  0.00000000E+00  0.00000000E+00
  0.00000000E+00  0.00000000E+00  0.00000000E+00  0.00000000E+00  0.00000000E+00
  0.00000000E+00  0.00000000E+00  0.00000000E+00  0.00000000E+00  0.00000000E+00
  0.00000000E+00  0.00000000E+00  0.00000000E+00  0.00000000E+00  0.00000000E+00
  0.00000000E+00  0.00000000E+00  0.00000000E+00  0.00000000E+00  0.00000000E+00
  0.00000000E+00  0.00000000E+00  0.00000000E+00  0.00000000E+00  0.00000000E+00
  0.00000000E+00  0.00000000E+00  0.00000000E+00  0.00000000E+00  0.00000000E+00
  0.00000000E+00  0.00000000E+00  0.00000000E+00  0.00000000E+00  0.00000000E+00
  0.00000000E+00  0.00000000E+00  0.00000000E+00  0.00000000E+00  0.00000000E+00
  0.00000000E+00  0.00000000E+00  0.00000000E+00  0.00000000E+00  0.00000000E+00
  0.00000000E+00  0.00000000E+00  0.00000000E+00  0.00000000E+00  0.00000000E+00
  0.00000000E+00  0.00000000E+00  0.00000000E+00  0.00000000E+00  0.00000000E+00
  0.00000000E+00  0.00000000E+00  0.00000000E+00  0.00000000E+00  0.00000000E+00
  0.00000000E+00  0.00000000E+00  0.00000000E+00  0.00000000E+00  0.00000000E+00
  0.00000000E+00  0.00000000E+00  0.00000000E+00  0.00000000E+00  0.00000000E+00
  0.00000000E+00  0.00000000E+00  0.00000000E+00  0.00000000E+00  0.00000000E+00
  0.00000000E+00  0.00000000E+00  0.00000000E+00  0.00000000E+00  0.00000000E+00
  0.00000000E+00  0.00000000E+00  0.00000000E+00  0.00000000E+00  0.00000000E+00
  0.00000000E+00  0.00000000E+00  0.00000000E+00  0.00000000E+00  0.00000000E+00
  0.00000000E+00  0.00000000E+00  0.00000000E+00  0.00000000E+00  0.00000000E+00
  0.00000000E+00  0.00000000E+00  0.00000000E+00  0.00000000E+00  0.00000000E+00
  0.00000000E+00  0.00000000E+00  0.00000000E+00  0.00000000E+00  0.00000000E+00
  0.00000000E+00  0.00000000E+00  0.00000000E+00  0.00000000E+00  0.00000000E+00
  0.00000000E+00  0.00000000E+00  0.00000000E+00  0.00000000E+00  0.00000000E+00
  0.00000000E+00  0.00000000E+00  0.00000000E+00  0.00000000E+00  0.00000000E+00
  0.00000000E+00  0.00000000E+00  0.00000000E+00  0.00000000E+00  0.00000000E+00
  0.00000000E+00  0.00000000E+00  0.00000000E+00  0.00000000E+00  0.00000000E+00
  0.00000000E+00  0.00000000E+00  0.00000000E+00  0.00000000E+00  0.00000000E+00
  0.00000000E+00  0.00000000E+00  0.00000000E+00  0.00000000E+00  0.00000000E+00
  0.00000000E+00  0.00000000E+00  0.00000000E+00  0.00000000E+00  0.00000000E+00
  0.00000000E+00  0.00000000E+00
MO    3                     OCC NO =   1.00000000 ORB. ENERGY = -51.76179688
  1.15111444E+01  1.03210923E+01  9.86292784E+00  8.53205985E+00  7.74749888E+00
  7.27902185E+00  7.01753130E+00  6.89435262E+00  6.97191891E+00  6.35353506E+00
  5.78895032E+00  3.31238558E+00  9.06258859E-01  1.57142477E+00  4.36157255E+00
  8.49126695E+00  8.80019835E+00  1.58436053E+00 -7.11057970E+00 -6.23197446E+00
 -4.30146228E+00  3.42257865E+00  2.84216343E+00  2.74814362E-01 -2.76796412E-02
  6.52404212E-03 -2.88244534E-03  5.15076364E-04 -5.25253546E-05  8.58153267E-06
  0.00000000E+00  0.00000000E+00  0.00000000E+00  0.00000000E+00  0.00000000E+00
  0.00000000E+00  0.00000000E+00  0.00000000E+00  0.00000000E+00  0.00000000E+00
  0.00000000E+00  0.00000000E+00  0.00000000E+00  0.00000000E+00  0.00000000E+00
  0.00000000E+00  0.00000000E+00  0.00000000E+00  0.00000000E+00  0.00000000E+00
  0.00000000E+00  0.00000000E+00  0.00000000E+00  0.00000000E+00  0.00000000E+00
  0.00000000E+00  0.00000000E+00  0.00000000E+00  0.00000000E+00  0.00000000E+00
  0.00000000E+00  0.00000000E+00  0.00000000E+00  0.00000000E+00  0.00000000E+00
  0.00000000E+00  0.00000000E+00  0.00000000E+00  0.00000000E+00  0.00000000E+00
  0.00000000E+00  0.00000000E+00  0.00000000E+00  0.00000000E+00  0.00000000E+00
  0.00000000E+00  0.00000000E+00  0.00000000E+00  0.00000000E+00  0.00000000E+00
  0.00000000E+00  0.00000000E+00  0.00000000E+00  0.00000000E+00  0.00000000E+00
  0.00000000E+00  0.00000000E+00  0.00000000E+00  0.00000000E+00  0.00000000E+00
  0.00000000E+00  0.00000000E+00  0.00000000E+00  0.00000000E+00  0.00000000E+00
  0.00000000E+00  0.00000000E+00  0.00000000E+00  0.00000000E+00  0.00000000E+00
  0.00000000E+00  0.00000000E+00  0.00000000E+00  0.00000000E+00  0.00000000E+00
  0.00000000E+00  0.00000000E+00  0.00000000E+00  0.00000000E+00  0.00000000E+00
  0.00000000E+00  0.00000000E+00  0.00000000E+00  0.00000000E+00  0.00000000E+00
  0.00000000E+00  0.00000000E+00  0.00000000E+00  0.00000000E+00  0.00000000E+00
  0.00000000E+00  0.00000000E+00  0.00000000E+00  0.00000000E+00  0.00000000E+00
  0.00000000E+00  0.00000000E+00  0.00000000E+00  0.00000000E+00  0.00000000E+00
  0.00000000E+00  0.00000000E+00  0.00000000E+00  0.00000000E+00  0.00000000E+00
  0.00000000E+00  0.00000000E+00  0.00000000E+00  0.00000000E+00  0.00000000E+00
  0.00000000E+00  0.00000000E+00  0.00000000E+00  0.00000000E+00  0.00000000E+00
  0.00000000E+00  0.00000000E+00  0.00000000E+00  0.00000000E+00  0.00000000E+00
  0.00000000E+00  0.00000000E+00  0.00000000E+00  0.00000000E+00  0.00000000E+00
  0.00000000E+00  0.00000000E+00  0.00000000E+00  0.00000000E+00  0.00000000E+00
  0.00000000E+00  0.00000000E+00  0.00000000E+00  0.00000000E+00  0.00000000E+00
  0.00000000E+00  0.00000000E+00  0.00000000E+00  0.00000000E+00  0.00000000E+00
  0.00000000E+00  0.00000000E+00  0.00000000E+00  0.00000000E+00  0.00000000E+00
  0.00000000E+00  0.00000000E+00  0.00000000E+00  0.00000000E+00  0.00000000E+00
  0.00000000E+00  0.00000000E+00  0.00000000E+00  0.00000000E+00  0.00000000E+00
  0.00000000E+00  0.00000000E+00  0.00000000E+00  0.00000000E+00  0.00000000E+00
  0.00000000E+00  0.00000000E+00  0.00000000E+00  0.00000000E+00  0.00000000E+00
  0.00000000E+00  0.00000000E+00  0.00000000E+00  0.00000000E+00  0.00000000E+00
  0.00000000E+00  0.00000000E+00  0.00000000E+00  0.00000000E+00  0.00000000E+00
  0.00000000E+00  0.00000000E+00  0.00000000E+00  0.00000000E+00  0.00000000E+00
  0.00000000E+00  0.00000000E+00  0.00000000E+00  0.00000000E+00  0.00000000E+00
  0.00000000E+00  0.00000000E+00  0.00000000E+00  0.00000000E+00  0.00000000E+00
  0.00000000E+00  0.00000000E+00  0.00000000E+00  0.00000000E+00  0.00000000E+00
  0.00000000E+00  0.00000000E+00  0.00000000E+00  0.00000000E+00  0.00000000E+00
  0.00000000E+00  0.00000000E+00  0.00000000E+00  0.00000000E+00  0.00000000E+00
  0.00000000E+00  0.00000000E+00  0.00000000E+00  0.00000000E+00  0.00000000E+00
  0.00000000E+00  0.00000000E+00  0.00000000E+00  0.00000000E+00  0.00000000E+00
  0.00000000E+00  0.00000000E+00  0.00000000E+00  0.00000000E+00  0.00000000E+00
  0.00000000E+00  0.00000000E+00  0.00000000E+00  0.00000000E+00  0.00000000E+00
  0.00000000E+00  0.00000000E+00  0.00000000E+00  0.00000000E+00  0.00000000E+00
  0.00000000E+00  0.00000000E+00  0.00000000E+00  0.00000000E+00  0.00000000E+00
  0.00000000E+00  0.00000000E+00  0.00000000E+00  0.00000000E+00  0.00000000E+00
  0.00000000E+00  0.00000000E+00  0.00000000E+00  0.00000000E+00  0.00000000E+00
  0.00000000E+00  0.00000000E+00  0.00000000E+00  0.00000000E+00  0.00000000E+00
  0.00000000E+00  0.00000000E+00  0.00000000E+00  0.00000000E+00  0.00000000E+00
  0.00000000E+00  0.00000000E+00  0.00000000E+00  0.00000000E+00  0.00000000E+00
  0.00000000E+00  0.00000000E+00  0.00000000E+00  0.00000000E+00  0.00000000E+00