atomref-proatoms Cl_q0_mult2_nist x2c-QZVPall
GAUSSIAN             18 MOL ORBITALS    124 PRIMITIVES        1 NUCLEI
  Cl   1    (CENTRE  1)   0.00000000  0.00000000  0.00000000  CHARGE = 17.0
CENTRE ASSIGNMENTS    1  1  1  1  1  1  1  1  1  1  1  1  1  1  1  1  1  1  1  1
CENTRE ASSIGNMENTS    1  1  1  1  1  1  1  1  1  1  1  1  1  1  1  1  1  1  1  1
CENTRE ASSIGNMENTS    1  1  1  1  1  1  1  1  1  1  1  1  1  1  1  1  1  1  1  1
CENTRE ASSIGNMENTS    1  1  1  1  1  1  1  1  1  1  1  1  1  1  1  1  1  1  1  1
CENTRE ASSIGNMENTS    1  1  1  1  1  1  1  1  1  1  1  1  1  1  1  1  1  1  1  1
CENTRE ASSIGNMENTS    1  1  1  1  1  1  1  1  1  1  1  1  1  1  1  1  1  1  1  1
CENTRE ASSIGNMENTS    1  1  1  1
TYPE ASSIGNMENTS      1  1  1  1  1  1  1  1  1  1  1  1  1  1  1  1  1  1  1  1
TYPE ASSIGNMENTS      2  3  4  2  3  4  2  3  4  2  3  4  2  3  4  2  3  4  2  3
TYPE ASSIGNMENTS      4  2  3  4  2  3  4  2  3  4  2  3  4  2  3  4  2  3  4  2
TYPE ASSIGNMENTS      3  4  2  3  4  5  8  9  6 10  7  5  8  9  6 10  7  5  8  9
TYPE ASSIGNMENTS      6 10  7  5  8  9  6 10  7 11 14 15 17 20 18 12 16 19 13 11
TYPE ASSIGNMENTS     14 15 17 20 18 12 16 19 13 21 24 25 30 33 31 26 34 35 28 22
TYPE ASSIGNMENTS     27 32 29 23
EXPONENTS  1.5509095E+06 2.2134723E+05 5.0233334E+04 1.4191689E+04 4.6312527E+03
EXPONENTS  1.6701430E+03 6.5161677E+02 2.6998150E+02 1.1719733E+02 5.2938067E+01
EXPONENTS  4.6177822E+02 1.4201322E+02 5.4423310E+01 2.4204283E+01 9.7090618E+00
EXPONENTS  4.5622542E+00 2.1208427E+00 7.5778257E-01 3.3724784E-01 1.3868014E-01
EXPONENTS  4.4307781E+03 4.4307781E+03 4.4307781E+03 1.4508916E+03 1.4508916E+03
EXPONENTS  1.4508916E+03 5.0266145E+02 5.0266145E+02 5.0266145E+02 1.8424761E+02
EXPONENTS  1.8424761E+02 1.8424761E+02 7.1451908E+01 7.1451908E+01 7.1451908E+01
EXPONENTS  2.9316455E+01 2.9316455E+01 2.9316455E+01 1.2726083E+01 1.2726083E+01
EXPONENTS  1.2726083E+01 5.8447200E+00 5.8447200E+00 5.8447200E+00 2.8383858E+00
EXPONENTS  2.8383858E+00 2.8383858E+00 1.0540943E+02 1.0540943E+02 1.0540943E+02
EXPONENTS  6.7460712E+00 6.7460712E+00 6.7460712E+00 1.2425044E+00 1.2425044E+00
EXPONENTS  1.2425044E+00 5.5583379E-01 5.5583379E-01 5.5583379E-01 2.3378350E-01
EXPONENTS  2.3378350E-01 2.3378350E-01 9.3161880E-02 9.3161880E-02 9.3161880E-02
EXPONENTS  5.1910000E+00 5.1910000E+00 5.1910000E+00 5.1910000E+00 5.1910000E+00
EXPONENTS  5.1910000E+00 1.2760000E+00 1.2760000E+00 1.2760000E+00 1.2760000E+00
EXPONENTS  1.2760000E+00 1.2760000E+00 5.8300000E-01 5.8300000E-01 5.8300000E-01
EXPONENTS  5.8300000E-01 5.8300000E-01 5.8300000E-01 2.4300000E-01 2.4300000E-01
EXPONENTS  2.4300000E-01 2.4300000E-01 2.4300000E-01 2.4300000E-01 1.0890000E+00
EXPONENTS  1.0890000E+00 1.0890000E+00 1.0890000E+00 1.0890000E+00 1.0890000E+00
EXPONENTS  1.0890000E+00 1.0890000E+00 1.0890000E+00 1.0890000E+00 4.2300000E-01
EXPONENTS  4.2300000E-01 4.2300000E-01 4.2300000E-01 4.2300000E-01 4.2300000E-01
EXPONENTS  4.2300000E-01 4.2300000E-01 4.2300000E-01 4.2300000E-01 8.2700000E-01
EXPONENTS  8.2700000E-01 8.2700000E-01 8.2700000E-01 8.2700000E-01 8.2700000E-01
EXPONENTS  8.2700000E-01 8.2700000E-01 8.2700000E-01 8.2700000E-01 8.2700000E-01
EXPONENTS  8.2700000E-01 8.2700000E-01 8.2700000E-01 8.2700000E-01
MO    1                     OCC NO =   1.00000000 ORB. ENERGY = -102.12457876
  2.49403521E+00  1.94127466E+00  2.09261370E+00  2.54987308E+00  3.36246683E+00
  4.58143510E+00  6.06050799E+00  7.37557457E+00  7.34716164E+00  5.01971653E+00
 -1.68610600E-03 -6.11979737E-03 -1.13643659E-02  1.73185870E+00  1.19110400E-01
 -8.16438270E-03  1.75395493E-03 -2.93519705E-04  7.61599139E-05 -1.06629193E-05
  0.00000000E+00  0.00000000E+00  0.00000000E+00  0.00000000E+00  0.00000000E+00
  0.00000000E+00  0.00000000E+00  0.00000000E+00  0.00000000E+00  0.00000000E+00
  0.00000000E+00  0.00000000E+00  0.00000000E+00  0.00000000E+00  0.00000000E+00
  0.00000000E+00  0.00000000E+00  0.00000000E+00  0.00000000E+00  0.00000000E+00
  0.00000000E+00  0.00000000E+00  0.00000000E+00  0.00000000E+00  0.00000000E+00
  0.00000000E+00  0.00000000E+00  0.00000000E+00  0.00000000E+00  0.00000000E+00
  0.00000000E+00  0.00000000E+00  0.00000000E+00  0.00000000E+00  0.00000000E+00
  0.00000000E+00  0.00000000E+00  0.00000000E+00  0.00000000E+00  0.00000000E+00
  0.00000000E+00  0.00000000E+00  0.00000000E+00  0.00000000E+00  0.00000000E+00
  0.00000000E+00  0.00000000E+00  0.00000000E+00  0.00000000E+00  0.00000000E+00
  0.00000000E+00  0.00000000E+00  0.00000000E+00  0.00000000E+00  0.00000000E+00
  0.00000000E+00  0.00000000E+00  0.00000000E+00  0.00000000E+00  0.00000000E+00
  0.00000000E+00  0.00000000E+00  0.00000000E+00  0.00000000E+00  0.00000000E+00
  0.00000000E+00  0.00000000E+00  0.00000000E+00  0.00000000E+00  0.00000000E+00
  0.00000000E+00  0.00000000E+00  0.00000000E+00  0.00000000E+00  0.00000000E+00
  0.00000000E+00  0.00000000E+00  0.00000000E+00  0.00000000E+00  0.00000000E+00
  0.00000000E+00  0.00000000E+00  0.00000000E+00  0.00000000E+00  0.00000000E+00
  0.00000000E+00  0.00000000E+00  0.00000000E+00  0.00000000E+00  0.00000000E+00
  0.00000000E+00  0.00000000E+00  0.00000000E+00  0.00000000E+00  0.00000000E+00
  0.00000000E+00  0.00000000E+00  0.00000000E+00  0.00000000E+00  0.00000000E+00
  0.00000000E+00  0.00000000E+00  0.00000000E+00  0.00000000E+00
MO    2                     OCC NO =   1.00000000 ORB. ENERGY =  -9.64973078
 -7.13587307E-01 -5.55432798E-01 -5.98733558E-01 -7.29563502E-01 -9.62060854E-01
 -1.31082910E+00 -1.73401785E+00 -2.11028151E+00 -2.10215207E+00 -1.43622912E+00
 -1.52727727E-01 -5.54332134E-01 -1.02938592E+00 -1.09388603E+00  7.48227894E-01
  1.23672649E+00  4.76402283E-01  2.62341595E-02 -2.99717702E-03  3.82452528E-04
  0.00000000E+00  0.00000000E+00  0.00000000E+00  0.00000000E+00  0.00000000E+00
  0.00000000E+00  0.00000000E+00  0.00000000E+00  0.00000000E+00  0.00000000E+00
  0.00000000E+00  0.00000000E+00  0.00000000E+00  0.00000000E+00  0.00000000E+00
  0.00000000E+00  0.00000000E+00  0.00000000E+00  0.00000000E+00  0.00000000E+00
  0.00000000E+00  0.00000000E+00  0.00000000E+00  0.00000000E+00  0.00000000E+00
  0.00000000E+00  0.00000000E+00  0.00000000E+00  0.00000000E+00  0.00000000E+00
  0.00000000E+00  0.00000000E+00  0.00000000E+00  0.00000000E+00  0.00000000E+00
  0.00000000E+00  0.00000000E+00  0.00000000E+00  0.00000000E+00  0.00000000E+00
  0.00000000E+00  0.00000000E+00  0.00000000E+00  0.00000000E+00  0.00000000E+00
  0.00000000E+00  0.00000000E+00  0.00000000E+00  0.00000000E+00  0.00000000E+00
  0.00000000E+00  0.00000000E+00  0.00000000E+00  0.00000000E+00  0.00000000E+00
  0.00000000E+00  0.00000000E+00  0.00000000E+00  0.00000000E+00  0.00000000E+00
  0.00000000E+00  0.00000000E+00  0.00000000E+00  0.00000000E+00  0.00000000E+00
  0.00000000E+00  0.00000000E+00  0.00000000E+00  0.00000000E+00  0.00000000E+00
  0.00000000E+00  0.00000000E+00  0.00000000E+00  0.00000000E+00  0.00000000E+00
  0.00000000E+00  0.00000000E+00  0.00000000E+00  0.00000000E+00  0.00000000E+00
  0.00000000E+00  0.00000000E+00  0.00000000E+00  0.00000000E+00  0.00000000E+00
  0.00000000E+00  0.00000000E+00  0.00000000E+00  0.00000000E+00  0.00000000E+00
  0.00000000E+00  0.00000000E+00  0.00000000E+00  0.00000000E+00  0.00000000E+00
  0.00000000E+00  0.00000000E+00  0.00000000E+00  0.00000000E+00  0.00000000E+00
  0.00000000E+00  0.00000000E+00  0.00000000E+00  0.00000000E+00
MO    3                     OCC NO =   1.00000000 ORB. ENERGY =  -0.87983277
  2.26686463E-01  1.76445257E-01  1.90200682E-01  2.31761647E-01  3.05619466E-01
  4.16413253E-01  5.50848324E-01  6.70376624E-01  6.67794133E-01  4.56249285E-01
  5.41632538E-02  1.96587959E-01  3.65060700E-01  3.93918198E-01 -3.19587139E-01
 -6.20123683E-01 -4.06782395E-01  1.90902585E-01  2.14203793E-01  3.80437636E-02
  0.00000000E+00  0.00000000E+00  0.00000000E+00  0.00000000E+00  0.00000000E+00
  0.00000000E+00  0.00000000E+00  0.00000000E+00  0.00000000E+00  0.00000000E+00
  0.00000000E+00  0.00000000E+00  0.00000000E+00  0.00000000E+00  0.00000000E+00
  0.00000000E+00  0.00000000E+00  0.00000000E+00  0.00000000E+00  0.00000000E+00
  0.00000000E+00  0.00000000E+00  0.00000000E+00  0.00000000E+00  0.00000000E+00
  0.00000000E+00  0.00000000E+00  0.00000000E+00  0.00000000E+00  0.00000000E+00
  0.00000000E+00  0.00000000E+00  0.00000000E+00  0.00000000E+00  0.00000000E+00
  0.00000000E+00  0.00000000E+00  0.00000000E+00  0.00000000E+00  0.00000000E+00
  0.00000000E+00  0.00000000E+00  0.00000000E+00  0.00000000E+00  0.00000000E+00
  0.00000000E+00  0.00000000E+00  0.00000000E+00  0.00000000E+00  0.00000000E+00
  0.00000000E+00  0.00000000E+00  0.00000000E+00  0.00000000E+00  0.00000000E+00
  0.00000000E+00  0.00000000E+00  0.00000000E+00  0.00000000E+00  0.00000000E+00
  0.00000000E+00  0.00000000E+00  0.00000000E+00  0.00000000E+00  0.00000000E+00
  0.00000000E+00  0.00000000E+00  0.00000000E+00  0.00000000E+00  0.00000000E+00
  0.00000000E+00  0.00000000E+00  0.00000000E+00  0.00000000E+00  0.00000000E+00
  0.00000000E+00  0.00000000E+00  0.00000000E+00  0.00000000E+00  0.00000000E+00
  0.00000000E+00  0.00000000E+00  0.00000000E+00  0.00000000E+00  0.00000000E+00
  0.00000000E+00  0.00000000E+00  0.00000000E+00  0.00000000E+00  0.00000000E+00
  0.00000000E+00  0.00000000E+00  0.00000000E+00  0.00000000E+00  0.00000000E+00
  0.00000000E+00  0.00000000E+00  0.00000000E+00  0.00000000E+00  0.00000000E+00
  0.00000000E+00  0.00000000E+00  0.00000000E+00  0.00000000E+00
MO    4                     OCC NO =   1.00000000 ORB. ENERGY =  -7.31938076
  0.00000000E+00  0.00000000E+00  0.00000000E+00  0.00000000E+00  0.00000000E+00
  0.00000000E+00  0.00000000E+00  0.00000000E+00  0.00000000E+00  0.00000000E+00
  0.00000000E+00  0.00000000E+00  0.00000000E+00  0.00000000E+00  0.00000000E+00
  0.00000000E+00  0.00000000E+00  0.00000000E+00  0.00000000E+00  0.00000000E+00
  5.89700984E+00  0.00000000E+00  0.00000000E+00  5.84215869E+00  0.00000000E+00
  0.00000000E+00  8.46769634E+00  0.00000000E+00  0.00000000E+00  1.18649593E+01
  0.00000000E+00  0.00000000E+00  1.42800208E+01  0.00000000E+00  0.00000000E+00
  1.39380950E+01  0.00000000E+00  0.00000000E+00  1.00065928E+01  0.00000000E+00
  0.00000000E+00  4.60077587E+00  0.00000000E+00  0.00000000E+00  1.44707593E+00
  0.00000000E+00  0.00000000E+00 -1.75186153E-01  0.00000000E+00  0.00000000E+00
  1.02343390E-01  0.00000000E+00  0.00000000E+00  1.42495807E-01  0.00000000E+00
  0.00000000E+00 -5.63903422E-05  0.00000000E+00  0.00000000E+00  1.30220285E-04
  0.00000000E+00  0.00000000E+00 -5.64509522E-06  0.00000000E+00  0.00000000E+00
  0.00000000E+00  0.00000000E+00  0.00000000E+00  0.00000000E+00  0.00000000E+00
  0.00000000E+00  0.00000000E+00  0.00000000E+00  0.00000000E+00  0.00000000E+00
  0.00000000E+00  0.00000000E+00  0.00000000E+00  0.00000000E+00  0.00000000E+00
  0.00000000E+00  0.00000000E+00  0.00000000E+00  0.00000000E+00  0.00000000E+00
  0.00000000E+00  0.00000000E+00  0.00000000E+00  0.00000000E+00  0.00000000E+00
  0.00000000E+00  0.00000000E+00  0.00000000E+00  0.00000000E+00  0.00000000E+00
  0.00000000E+00  0.00000000E+00  0.00000000E+00  0.00000000E+00  0.00000000E+00
  0.00000000E+00  0.00000000E+00  0.00000000E+00  0.00000000E+00  0.00000000E+00
  0.00000000E+00  0.00000000E+00  0.00000000E+00  0.00000000E+00  0.00000000E+00
  0.00000000E+00  0.00000000E+00  0.00000000E+00  0.00000000E+00  0.00000000E+00
  0.00000000E+00  0.00000000E+00  0.00000000E+00  0.00000000E+00  0.00000000E+00
  0.00000000E+00  0.00000000E+00  0.00000000E+00  0.00000000E+00
MO    5                     OCC NO =   1.00000000 ORB. ENERGY =  -7.31938076
  0.00000000E+00  0.00000000E+00  0.00000000E+00  0.00000000E+00  0.00000000E+00
  0.00000000E+00  0.00000000E+00  0.00000000E+00  0.00000000E+00  0.00000000E+00
  0.00000000E+00  0.00000000E+00  0.00000000E+00  0.00000000E+00  0.00000000E+00
  0.00000000E+00  0.00000000E+00  0.00000000E+00  0.00000000E+00  0.00000000E+00
  0.00000000E+00  5.89700984E+00  0.00000000E+00  0.00000000E+00  5.84215869E+00
  0.00000000E+00  0.00000000E+00  8.46769634E+00  0.00000000E+00  0.00000000E+00
  1.18649593E+01  0.00000000E+00  0.00000000E+00  1.42800208E+01  0.00000000E+00
  0.00000000E+00  1.39380950E+01  0.00000000E+00  0.00000000E+00  1.00065928E+01
  0.00000000E+00  0.00000000E+00  4.60077587E+00  0.00000000E+00  0.00000000E+00
  1.44707593E+00  0.00000000E+00  0.00000000E+00 -1.75186153E-01  0.00000000E+00
  0.00000000E+00  1.02343390E-01  0.00000000E+00  0.00000000E+00  1.42495807E-01
  0.00000000E+00  0.00000000E+00 -5.63903422E-05  0.00000000E+00  0.00000000E+00
  1.30220285E-04  0.00000000E+00  0.00000000E+00 -5.64509522E-06  0.00000000E+00
  0.00000000E+00  0.00000000E+00  0.00000000E+00  0.00000000E+00  0.00000000E+00
  0.00000000E+00  0.00000000E+00  0.00000000E+00  0.00000000E+00  0.00000000E+00
  0.00000000E+00  0.00000000E+00  0.00000000E+00  0.00000000E+00  0.00000000E+00
  0.00000000E+00  0.00000000E+00  0.00000000E+00  0.00000000E+00  0.00000000E+00
  0.00000000E+00  0.00000000E+00  0.00000000E+00  0.00000000E+00  0.00000000E+00
  0.00000000E+00  0.00000000E+00  0.00000000E+00  0.00000000E+00  0.00000000E+00
  0.00000000E+00  0.00000000E+00  0.00000000E+00  0.00000000E+00  0.00000000E+00
  0.00000000E+00  0.00000000E+00  0.00000000E+00  0.00000000E+00  0.00000000E+00
  0.00000000E+00  0.00000000E+00  0.00000000E+00  0.00000000E+00  0.00000000E+00
  0.00000000E+00  0.00000000E+00  0.00000000E+00  0.00000000E+00  0.00000000E+00
  0.00000000E+00  0.00000000E+00  0.00000000E+00  0.00000000E+00  0.00000000E+00
  0.00000000E+00  0.00000000E+00  0.00000000E+00  0.00000000E+00
MO    6                     OCC NO =   1.00000000 ORB. ENERGY =  -7.31938076
  0.00000000E+00  0.00000000E+00  0.00000000E+00  0.00000000E+00  0.00000000E+00
  0.00000000E+00  0.00000000E+00  0.00000000E+00  0.00000000E+00  0.00000000E+00
  0.00000000E+00  0.00000000E+00  0.00000000E+00  0.00000000E+00  0.00000000E+00
  0.00000000E+00  0.00000000E+00  0.00000000E+00  0.00000000E+00  0.00000000E+00
  0.00000000E+00  0.00000000E+00  5.89700984E+00  0.00000000E+00  0.00000000E+00
  5.84215869E+00  0.00000000E+00  0.00000000E+00  8.46769634E+00  0.00000000E+00
  0.00000000E+00  1.18649593E+01  0.00000000E+00  0.00000000E+00  1.42800208E+01
  0.00000000E+00  0.00000000E+00  1.39380950E+01  0.00000000E+00  0.00000000E+00
  1.00065928E+01  0.00000000E+00  0.00000000E+00  4.60077587E+00  0.00000000E+00
  0.00000000E+00  1.44707593E+00  0.00000000E+00  0.00000000E+00 -1.75186153E-01
  0.00000000E+00  0.00000000E+00  1.02343390E-01  0.00000000E+00  0.00000000E+00
  1.42495807E-01  0.00000000E+00  0.00000000E+00 -5.63903422E-05  0.00000000E+00
  0.00000000E+00  1.30220285E-04  0.00000000E+00  0.00000000E+00 -5.64509522E-06
  0.00000000E+00  0.00000000E+00  0.00000000E+00  0.00000000E+00  0.00000000E+00
  0.00000000E+00  0.00000000E+00  0.00000000E+00  0.00000000E+00  0.00000000E+00
  0.00000000E+00  0.00000000E+00  0.00000000E+00  0.00000000E+00  0.00000000E+00
  0.00000000E+00  0.00000000E+00  0.00000000E+00  0.00000000E+00  0.00000000E+00
  0.00000000E+00  0.00000000E+00  0.00000000E+00  0.00000000E+00  0.00000000E+00
  0.00000000E+00  0.00000000E+00  0.00000000E+00  0.00000000E+00  0.00000000E+00
  0.00000000E+00  0.00000000E+00  0.00000000E+00  0.00000000E+00  0.00000000E+00
  0.00000000E+00  0.00000000E+00  0.00000000E+00  0.00000000E+00  0.00000000E+00
  0.00000000E+00  0.00000000E+00  0.00000000E+00  0.00000000E+00  0.00000000E+00
  0.00000000E+00  0.00000000E+00  0.00000000E+00  0.00000000E+00  0.00000000E+00
  0.00000000E+00  0.00000000E+00  0.00000000E+00  0.00000000E+00  0.00000000E+00
  0.00000000E+00  0.00000000E+00  0.00000000E+00  0.00000000E+00
MO    7                     OCC NO =   1.00000000 ORB. ENERGY =  -0.39073210
  0.00000000E+00  0.00000000E+00  0.00000000E+00  0.00000000E+00  0.00000000E+00
  0.00000000E+00  0.00000000E+00  0.00000000E+00  0.00000000E+00  0.00000000E+00
  0.00000000E+00  0.00000000E+00  0.00000000E+00  0.00000000E+00  0.00000000E+00
  0.00000000E+00  0.00000000E+00  0.00000000E+00  0.00000000E+00  0.00000000E+00
 -1.74356912E+00  0.00000000E+00  0.00000000E+00 -1.72735128E+00  0.00000000E+00
  0.00000000E+00 -2.50364410E+00  0.00000000E+00  0.00000000E+00 -3.50811297E+00
  0.00000000E+00  0.00000000E+00 -4.22217428E+00  0.00000000E+00  0.00000000E+00
 -4.12107708E+00  0.00000000E+00  0.00000000E+00 -2.95864966E+00  0.00000000E+00
  0.00000000E+00 -1.36031158E+00  0.00000000E+00  0.00000000E+00 -4.27856995E-01
  0.00000000E+00  0.00000000E+00  2.54871098E-01  0.00000000E+00  0.00000000E+00
 -1.48895172E-01  0.00000000E+00  0.00000000E+00  2.90500947E-01  0.00000000E+00
  0.00000000E+00  2.91520940E-01  0.00000000E+00  0.00000000E+00  1.00393344E-01
  0.00000000E+00  0.00000000E+00  1.17781810E-02  0.00000000E+00  0.00000000E+00
  0.00000000E+00  0.00000000E+00  0.00000000E+00  0.00000000E+00  0.00000000E+00
  0.00000000E+00  0.00000000E+00  0.00000000E+00  0.00000000E+00  0.00000000E+00
  0.00000000E+00  0.00000000E+00  0.00000000E+00  0.00000000E+00  0.00000000E+00
  0.00000000E+00  0.00000000E+00  0.00000000E+00  0.00000000E+00  0.00000000E+00
  0.00000000E+00  0.00000000E+00  0.00000000E+00  0.00000000E+00  0.00000000E+00
  0.00000000E+00  0.00000000E+00  0.00000000E+00  0.00000000E+00  0.00000000E+00
  0.00000000E+00  0.00000000E+00  0.00000000E+00  0.00000000E+00  0.00000000E+00
  0.00000000E+00  0.00000000E+00  0.00000000E+00  0.00000000E+00  0.00000000E+00
  0.00000000E+00  0.00000000E+00  0.00000000E+00  0.00000000E+00  0.00000000E+00
  0.00000000E+00  0.00000000E+00  0.00000000E+00  0.00000000E+00  0.00000000E+00
  0.00000000E+00  0.00000000E+00  0.00000000E+00  0.00000000E+00  0.00000000E+00
  0.00000000E+00  0.00000000E+00  0.00000000E+00  0.00000000E+00
MO    8                     OCC NO =   1.00000000 ORB. ENERGY =  -0.39073210
  0.00000000E+00  0.00000000E+00  0.00000000E+00  0.00000000E+00  0.00000000E+00
  0.00000000E+00  0.00000000E+00  0.00000000E+00  0.00000000E+00  0.00000000E+00
  0.00000000E+00  0.00000000E+00  0.00000000E+00  0.00000000E+00  0.00000000E+00
  0.00000000E+00  0.00000000E+00  0.00000000E+00  0.00000000E+00  0.00000000E+00
  0.00000000E+00 -1.74356912E+00  0.00000000E+00  0.00000000E+00 -1.72735128E+00
  0.00000000E+00  0.00000000E+00 -2.50364410E+00  0.00000000E+00  0.00000000E+00
 -3.50811297E+00  0.00000000E+00  0.00000000E+00 -4.22217428E+00  0.00000000E+00
  0.00000000E+00 -4.12107708E+00  0.00000000E+00  0.00000000E+00 -2.95864966E+00
  0.00000000E+00  0.00000000E+00 -1.36031158E+00  0.00000000E+00  0.00000000E+00
 -4.27856995E-01  0.00000000E+00  0.00000000E+00  2.54871098E-01  0.00000000E+00
  0.00000000E+00 -1.48895172E-01  0.00000000E+00  0.00000000E+00  2.90500947E-01
  0.00000000E+00  0.00000000E+00  2.91520940E-01  0.00000000E+00  0.00000000E+00
  1.00393344E-01  0.00000000E+00  0.00000000E+00  1.17781810E-02  0.00000000E+00
  0.00000000E+00  0.00000000E+00  0.00000000E+00  0.00000000E+00  0.00000000E+00
  0.00000000E+00  0.00000000E+00  0.00000000E+00  0.00000000E+00  0.00000000E+00
  0.00000000E+00  0.00000000E+00  0.00000000E+00  0.00000000E+00  0.00000000E+00
  0.00000000E+00  0.00000000E+00  0.00000000E+00  0.00000000E+00  0.00000000E+00
  0.00000000E+00  0.00000000E+00  0.00000000E+00  0.00000000E+00  0.00000000E+00
  0.00000000E+00  0.00000000E+00  0.00000000E+00  0.00000000E+00  0.00000000E+00
  0.00000000E+00  0.00000000E+00  0.00000000E+00  0.00000000E+00  0.00000000E+00
  0.00000000E+00  0.00000000E+00  0.00000000E+00  0.00000000E+00  0.00000000E+00
  0.00000000E+00  0.00000000E+00  0.00000000E+00  0.00000000E+00  0.00000000E+00
  0.00000000E+00  0.00000000E+00  0.00000000E+00  0.00000000E+00  0.00000000E+00
  0.00000000E+00  0.00000000E+00  0.00000000E+00  0.00000000E+00  0.00000000E+00
  0.00000000E+00  0.00000000E+00  0.00000000E+00  0.00000000E+00
MO    9                     OCC NO =   1.00000000 ORB. ENERGY =  -0.39073210
  0.00000000E+00  0.00000000E+00  0.00000000E+00  0.00000000E+00  0.00000000E+00
  0.00000000E+00  0.00000000E+00  0.00000000E+00  0.00000000E+00  0.00000000E+00
  0.00000000E+00  0.00000000E+00  0.00000000E+00  0.00000000E+00  0.00000000E+00
  0.00000000E+00  0.00000000E+00  0.00000000E+00  0.00000000E+00  0.00000000E+00
  0.00000000E+00  0.00000000E+00 -1.74356912E+00  0.00000000E+00  0.00000000E+00
 -1.72735128E+00  0.00000000E+00  0.00000000E+00 -2.50364410E+00  0.00000000E+00
  0.00000000E+00 -3.50811297E+00  0.00000000E+00  0.00000000E+00 -4.22217428E+00
  0.00000000E+00  0.00000000E+00 -4.12107708E+00  0.00000000E+00  0.00000000E+00
 -2.95864966E+00  0.00000000E+00  0.00000000E+00 -1.36031158E+00  0.00000000E+00
  0.00000000E+00 -4.27856995E-01  0.00000000E+00  0.00000000E+00  2.54871098E-01
  0.00000000E+00  0.00000000E+00 -1.48895172E-01  0.00000000E+00  0.00000000E+00
  2.90500947E-01  0.00000000E+00  0.00000000E+00  2.91520940E-01  0.00000000E+00
  0.00000000E+00  1.00393344E-01  0.00000000E+00  0.00000000E+00  1.17781810E-02
  0.00000000E+00  0.00000000E+00  0.00000000E+00  0.00000000E+00  0.00000000E+00
  0.00000000E+00  0.00000000E+00  0.00000000E+00  0.00000000E+00  0.00000000E+00
  0.00000000E+00  0.00000000E+00  0.00000000E+00  0.00000000E+00  0.00000000E+00
  0.00000000E+00  0.00000000E+00  0.00000000E+00  0.00000000E+00  0.00000000E+00
  0.00000000E+00  0.00000000E+00  0.00000000E+00  0.00000000E+00  0.00000000E+00
  0.00000000E+00  0.00000000E+00  0.00000000E+00  0.00000000E+00  0.00000000E+00
  0.00000000E+00  0.00000000E+00  0.00000000E+00  0.00000000E+00  0.00000000E+00
  0.00000000E+00  0.00000000E+00  0.00000000E+00  0.00000000E+00  0.00000000E+00
  0.00000000E+00  0.00000000E+00  0.00000000E+00  0.00000000E+00  0.00000000E+00
  0.00000000E+00  0.00000000E+00  0.00000000E+00  0.00000000E+00  0.00000000E+00
  0.00000000E+00  0.00000000E+00  0.00000000E+00  0.00000000E+00  0.00000000E+00
  0.00000000E+00  0.00000000E+00  0.00000000E+00  0.00000000E+00
MO   11                    OCC NO =   1.00000000 ORB. ENERGY = -102.11702801
  2.49415819E+00  1.94137038E+00  2.09271689E+00  2.54999881E+00  3.36263262E+00
  4.58166100E+00  6.06080682E+00  7.37593824E+00  7.34752391E+00  5.01996404E+00
 -1.63103392E-03 -5.91991078E-03 -1.09931798E-02  1.73121498E+00  1.19140526E-01
 -8.22563320E-03  1.77557912E-03 -2.93836250E-04  7.76830233E-05 -1.07489570E-05
  0.00000000E+00  0.00000000E+00  0.00000000E+00  0.00000000E+00  0.00000000E+00
  0.00000000E+00  0.00000000E+00  0.00000000E+00  0.00000000E+00  0.00000000E+00
  0.00000000E+00  0.00000000E+00  0.00000000E+00  0.00000000E+00  0.00000000E+00
  0.00000000E+00  0.00000000E+00  0.00000000E+00  0.00000000E+00  0.00000000E+00
  0.00000000E+00  0.00000000E+00  0.00000000E+00  0.00000000E+00  0.00000000E+00
  0.00000000E+00  0.00000000E+00  0.00000000E+00  0.00000000E+00  0.00000000E+00
  0.00000000E+00  0.00000000E+00  0.00000000E+00  0.00000000E+00  0.00000000E+00
  0.00000000E+00  0.00000000E+00  0.00000000E+00  0.00000000E+00  0.00000000E+00
  0.00000000E+00  0.00000000E+00  0.00000000E+00  0.00000000E+00  0.00000000E+00
  0.00000000E+00  0.00000000E+00  0.00000000E+00  0.00000000E+00  0.00000000E+00
  0.00000000E+00  0.00000000E+00  0.00000000E+00  0.00000000E+00  0.00000000E+00
  0.00000000E+00  0.00000000E+00  0.00000000E+00  0.00000000E+00  0.00000000E+00
  0.00000000E+00  0.00000000E+00  0.00000000E+00  0.00000000E+00  0.00000000E+00
  0.00000000E+00  0.00000000E+00  0.00000000E+00  0.00000000E+00  0.00000000E+00
  0.00000000E+00  0.00000000E+00  0.00000000E+00  0.00000000E+00  0.00000000E+00
  0.00000000E+00  0.00000000E+00  0.00000000E+00  0.00000000E+00  0.00000000E+00
  0.00000000E+00  0.00000000E+00  0.00000000E+00  0.00000000E+00  0.00000000E+00
  0.00000000E+00  0.00000000E+00  0.00000000E+00  0.00000000E+00  0.00000000E+00
  0.00000000E+00  0.00000000E+00  0.00000000E+00  0.00000000E+00  0.00000000E+00
  0.00000000E+00  0.00000000E+00  0.00000000E+00  0.00000000E+00  0.00000000E+00
  0.00000000E+00  0.00000000E+00  0.00000000E+00  0.00000000E+00
MO   12                    OCC NO =   1.00000000 ORB. ENERGY =  -9.64280872
 -7.13410291E-01 -5.55295014E-01 -5.98585034E-01 -7.29382523E-01 -9.61822200E-01
 -1.31050393E+00 -1.73358770E+00 -2.10975802E+00 -2.10163060E+00 -1.43587284E+00
 -1.52668176E-01 -5.54115993E-01 -1.02898455E+00 -1.09289591E+00  7.45541648E-01
  1.23731135E+00  4.77932007E-01  2.53641839E-02 -2.89243536E-03  3.57017696E-04
  0.00000000E+00  0.00000000E+00  0.00000000E+00  0.00000000E+00  0.00000000E+00
  0.00000000E+00  0.00000000E+00  0.00000000E+00  0.00000000E+00  0.00000000E+00
  0.00000000E+00  0.00000000E+00  0.00000000E+00  0.00000000E+00  0.00000000E+00
  0.00000000E+00  0.00000000E+00  0.00000000E+00  0.00000000E+00  0.00000000E+00
  0.00000000E+00  0.00000000E+00  0.00000000E+00  0.00000000E+00  0.00000000E+00
  0.00000000E+00  0.00000000E+00  0.00000000E+00  0.00000000E+00  0.00000000E+00
  0.00000000E+00  0.00000000E+00  0.00000000E+00  0.00000000E+00  0.00000000E+00
  0.00000000E+00  0.00000000E+00  0.00000000E+00  0.00000000E+00  0.00000000E+00
  0.00000000E+00  0.00000000E+00  0.00000000E+00  0.00000000E+00  0.00000000E+00
  0.00000000E+00  0.00000000E+00  0.00000000E+00  0.00000000E+00  0.00000000E+00
  0.00000000E+00  0.00000000E+00  0.00000000E+00  0.00000000E+00  0.00000000E+00
  0.00000000E+00  0.00000000E+00  0.00000000E+00  0.00000000E+00  0.00000000E+00
  0.00000000E+00  0.00000000E+00  0.00000000E+00  0.00000000E+00  0.00000000E+00
  0.00000000E+00  0.00000000E+00  0.00000000E+00  0.00000000E+00  0.00000000E+00
  0.00000000E+00  0.00000000E+00  0.00000000E+00  0.00000000E+00  0.00000000E+00
  0.00000000E+00  0.00000000E+00  0.00000000E+00  0.00000000E+00  0.00000000E+00
  0.00000000E+00  0.00000000E+00  0.00000000E+00  0.00000000E+00  0.00000000E+00
  0.00000000E+00  0.00000000E+00  0.00000000E+00  0.00000000E+00  0.00000000E+00
  0.00000000E+00  0.00000000E+00  0.00000000E+00  0.00000000E+00  0.00000000E+00
  0.00000000E+00  0.00000000E+00  0.00000000E+00  0.00000000E+00  0.00000000E+00
  0.00000000E+00  0.00000000E+00  0.00000000E+00  0.00000000E+00
MO   13                    OCC NO =   1.00000000 ORB. ENERGY =  -0.82302598
  2.25979668E-01  1.75895112E-01  1.89607648E-01  2.31039028E-01  3.04666564E-01
  4.15114902E-01  5.49130813E-01  6.68286432E-01  6.65711992E-01  4.54826728E-01
  5.40886257E-02  1.96317093E-01  3.64557705E-01  3.91454767E-01 -3.14339315E-01
 -6.29287961E-01 -3.96028876E-01  1.90015672E-01  2.08714537E-01  4.08374555E-02
  0.00000000E+00  0.00000000E+00  0.00000000E+00  0.00000000E+00  0.00000000E+00
  0.00000000E+00  0.00000000E+00  0.00000000E+00  0.00000000E+00  0.00000000E+00
  0.00000000E+00  0.00000000E+00  0.00000000E+00  0.00000000E+00  0.00000000E+00
  0.00000000E+00  0.00000000E+00  0.00000000E+00  0.00000000E+00  0.00000000E+00
  0.00000000E+00  0.00000000E+00  0.00000000E+00  0.00000000E+00  0.00000000E+00
  0.00000000E+00  0.00000000E+00  0.00000000E+00  0.00000000E+00  0.00000000E+00
  0.00000000E+00  0.00000000E+00  0.00000000E+00  0.00000000E+00  0.00000000E+00
  0.00000000E+00  0.00000000E+00  0.00000000E+00  0.00000000E+00  0.00000000E+00
  0.00000000E+00  0.00000000E+00  0.00000000E+00  0.00000000E+00  0.00000000E+00
  0.00000000E+00  0.00000000E+00  0.00000000E+00  0.00000000E+00  0.00000000E+00
  0.00000000E+00  0.00000000E+00  0.00000000E+00  0.00000000E+00  0.00000000E+00
  0.00000000E+00  0.00000000E+00  0.00000000E+00  0.00000000E+00  0.00000000E+00
  0.00000000E+00  0.00000000E+00  0.00000000E+00  0.00000000E+00  0.00000000E+00
  0.00000000E+00  0.00000000E+00  0.00000000E+00  0.00000000E+00  0.00000000E+00
  0.00000000E+00  0.00000000E+00  0.00000000E+00  0.00000000E+00  0.00000000E+00
  0.00000000E+00  0.00000000E+00  0.00000000E+00  0.00000000E+00  0.00000000E+00
  0.00000000E+00  0.00000000E+00  0.00000000E+00  0.00000000E+00  0.00000000E+00
  0.00000000E+00  0.00000000E+00  0.00000000E+00  0.00000000E+00  0.00000000E+00
  0.00000000E+00  0.00000000E+00  0.00000000E+00  0.00000000E+00  0.00000000E+00
  0.00000000E+00  0.00000000E+00  0.00000000E+00  0.00000000E+00  0.00000000E+00
  0.00000000E+00  0.00000000E+00  0.00000000E+00  0.00000000E+00
MO   14                    OCC NO =   1.00000000 ORB. ENERGY =  -7.30831382
  0.00000000E+00  0.00000000E+00  0.00000000E+00  0.00000000E+00  0.00000000E+00
  0.00000000E+00  0.00000000E+00  0.00000000E+00  0.00000000E+00  0.00000000E+00
  0.00000000E+00  0.00000000E+00  0.00000000E+00  0.00000000E+00  0.00000000E+00
  0.00000000E+00  0.00000000E+00  0.00000000E+00  0.00000000E+00  0.00000000E+00
  5.89296476E+00  0.00000000E+00  0.00000000E+00  5.83815124E+00  0.00000000E+00
  0.00000000E+00  8.46188789E+00  0.00000000E+00  0.00000000E+00  1.18568205E+01
  0.00000000E+00  0.00000000E+00  1.42702253E+01  0.00000000E+00  0.00000000E+00
  1.39285341E+01  0.00000000E+00  0.00000000E+00  9.99972869E+00  0.00000000E+00
  0.00000000E+00  4.59761995E+00  0.00000000E+00  0.00000000E+00  1.44608330E+00
  0.00000000E+00  0.00000000E+00 -1.87656571E-01  0.00000000E+00  0.00000000E+00
  1.09628583E-01  0.00000000E+00  0.00000000E+00  1.44270317E-01  0.00000000E+00
  0.00000000E+00 -9.49384970E-04  0.00000000E+00  0.00000000E+00  2.78881158E-04
  0.00000000E+00  0.00000000E+00 -2.09415294E-05  0.00000000E+00  0.00000000E+00
  0.00000000E+00  0.00000000E+00  0.00000000E+00  0.00000000E+00  0.00000000E+00
  0.00000000E+00  0.00000000E+00  0.00000000E+00  0.00000000E+00  0.00000000E+00
  0.00000000E+00  0.00000000E+00  0.00000000E+00  0.00000000E+00  0.00000000E+00
  0.00000000E+00  0.00000000E+00  0.00000000E+00  0.00000000E+00  0.00000000E+00
  0.00000000E+00  0.00000000E+00  0.00000000E+00  0.00000000E+00  0.00000000E+00
  0.00000000E+00  0.00000000E+00  0.00000000E+00  0.00000000E+00  0.00000000E+00
  0.00000000E+00  0.00000000E+00  0.00000000E+00  0.00000000E+00  0.00000000E+00