atomref-proatoms Co_q0_mult4_nist x2c-QZVPall
GAUSSIAN             30 MOL ORBITALS    199 PRIMITIVES        1 NUCLEI
  Co   1    (CENTRE  1)   0.00000000  0.00000000  0.00000000  CHARGE = 27.0
CENTRE ASSIGNMENTS    1  1  1  1  1  1  1  1  1  1  1  1  1  1  1  1  1  1  1  1
CENTRE ASSIGNMENTS    1  1  1  1  1  1  1  1  1  1  1  1  1  1  1  1  1  1  1  1
CENTRE ASSIGNMENTS    1  1  1  1  1  1  1  1  1  1  1  1  1  1  1  1  1  1  1  1
CENTRE ASSIGNMENTS    1  1  1  1  1  1  1  1  1  1  1  1  1  1  1  1  1  1  1  1
CENTRE ASSIGNMENTS    1  1  1  1  1  1  1  1  1  1  1  1  1  1  1  1  1  1  1  1
CENTRE ASSIGNMENTS    1  1  1  1  1  1  1  1  1  1  1  1  1  1  1  1  1  1  1  1
CENTRE ASSIGNMENTS    1  1  1  1  1  1  1  1  1  1  1  1  1  1  1  1  1  1  1  1
CENTRE ASSIGNMENTS    1  1  1  1  1  1  1  1  1  1  1  1  1  1  1  1  1  1  1  1
CENTRE ASSIGNMENTS    1  1  1  1  1  1  1  1  1  1  1  1  1  1  1  1  1  1  1  1
CENTRE ASSIGNMENTS    1  1  1  1  1  1  1  1  1  1  1  1  1  1  1  1  1  1  1
TYPE ASSIGNMENTS      1  1  1  1  1  1  1  1  1  1  1  1  1  1  1  1  1  1  1  1
TYPE ASSIGNMENTS      1  1  1  1  2  3  4  2  3  4  2  3  4  2  3  4  2  3  4  2
TYPE ASSIGNMENTS      3  4  2  3  4  2  3  4  2  3  4  2  3  4  2  3  4  2  3  4
TYPE ASSIGNMENTS      2  3  4  2  3  4  2  3  4  2  3  4  2  3  4  2  3  4  2  3
TYPE ASSIGNMENTS      4  2  3  4  5  8  9  6 10  7  5  8  9  6 10  7  5  8  9  6
TYPE ASSIGNMENTS     10  7  5  8  9  6 10  7  5  8  9  6 10  7  5  8  9  6 10  7
TYPE ASSIGNMENTS      5  8  9  6 10  7  5  8  9  6 10  7  5  8  9  6 10  7  5  8
TYPE ASSIGNMENTS      9  6 10  7 11 14 15 17 20 18 12 16 19 13 11 14 15 17 20 18
TYPE ASSIGNMENTS     12 16 19 13 11 14 15 17 20 18 12 16 19 13 11 14 15 17 20 18
TYPE ASSIGNMENTS     12 16 19 13 21 24 25 30 33 31 26 34 35 28 22 27 32 29 23
EXPONENTS  9.3545573E+06 1.1758576E+06 2.3706248E+05 6.1954682E+04 1.9275015E+04
EXPONENTS  6.8000315E+03 2.6414073E+03 1.0816625E+03 4.6806977E+02 2.1510355E+02
EXPONENTS  1.0206970E+02 1.6328325E+03 4.8694993E+02 1.8623166E+02 8.2115885E+01
EXPONENTS  4.1983786E+01 1.8499196E+01 8.7258633E+00 3.7599286E+00 1.7863621E+00
EXPONENTS  7.7585101E-01 1.6699640E-01 7.9556443E-02 3.4474774E-02 3.4597345E+04
EXPONENTS  3.4597345E+04 3.4597345E+04 8.3619703E+03 8.3619703E+03 8.3619703E+03
EXPONENTS  2.3150990E+03 2.3150990E+03 2.3150990E+03 7.3421899E+02 7.3421899E+02
EXPONENTS  7.3421899E+02 2.6673300E+02 2.6673300E+02 2.6673300E+02 1.1153954E+02
EXPONENTS  1.1153954E+02 1.1153954E+02 4.9991894E+01 4.9991894E+01 4.9991894E+01
EXPONENTS  2.3151502E+01 2.3151502E+01 2.3151502E+01 1.0988013E+01 1.0988013E+01
EXPONENTS  1.0988013E+01 5.1156143E+00 5.1156143E+00 5.1156143E+00 1.6600000E+01
EXPONENTS  1.6600000E+01 1.6600000E+01 6.8821397E+01 6.8821397E+01 6.8821397E+01
EXPONENTS  2.4728233E+01 2.4728233E+01 2.4728233E+01 4.9361948E+00 4.9361948E+00
EXPONENTS  4.9361948E+00 2.2949064E+00 2.2949064E+00 2.2949064E+00 1.0411602E+00
EXPONENTS  1.0411602E+00 1.0411602E+00 4.3485724E-01 4.3485724E-01 4.3485724E-01
EXPONENTS  1.7500000E-01 1.7500000E-01 1.7500000E-01 7.3000000E-02 7.3000000E-02
EXPONENTS  7.3000000E-02 3.0000000E-02 3.0000000E-02 3.0000000E-02 2.4609282E+02
EXPONENTS  2.4609282E+02 2.4609282E+02 2.4609282E+02 2.4609282E+02 2.4609282E+02
EXPONENTS  7.3049282E+01 7.3049282E+01 7.3049282E+01 7.3049282E+01 7.3049282E+01
EXPONENTS  7.3049282E+01 2.7874281E+01 2.7874281E+01 2.7874281E+01 2.7874281E+01
EXPONENTS  2.7874281E+01 2.7874281E+01 1.1799466E+01 1.1799466E+01 1.1799466E+01
EXPONENTS  1.1799466E+01 1.1799466E+01 1.1799466E+01 5.3401603E+00 5.3401603E+00
EXPONENTS  5.3401603E+00 5.3401603E+00 5.3401603E+00 5.3401603E+00 2.4564806E+00
EXPONENTS  2.4564806E+00 2.4564806E+00 2.4564806E+00 2.4564806E+00 2.4564806E+00
EXPONENTS  1.0978602E+00 1.0978602E+00 1.0978602E+00 1.0978602E+00 1.0978602E+00
EXPONENTS  1.0978602E+00 4.6237865E-01 4.6237865E-01 4.6237865E-01 4.6237865E-01
EXPONENTS  4.6237865E-01 4.6237865E-01 1.7492619E-01 1.7492619E-01 1.7492619E-01
EXPONENTS  1.7492619E-01 1.7492619E-01 1.7492619E-01 6.6000000E-02 6.6000000E-02
EXPONENTS  6.6000000E-02 6.6000000E-02 6.6000000E-02 6.6000000E-02 5.9750000E+00
EXPONENTS  5.9750000E+00 5.9750000E+00 5.9750000E+00 5.9750000E+00 5.9750000E+00
EXPONENTS  5.9750000E+00 5.9750000E+00 5.9750000E+00 5.9750000E+00 1.9030000E+00
EXPONENTS  1.9030000E+00 1.9030000E+00 1.9030000E+00 1.9030000E+00 1.9030000E+00
EXPONENTS  1.9030000E+00 1.9030000E+00 1.9030000E+00 1.9030000E+00 5.9400000E-01
EXPONENTS  5.9400000E-01 5.9400000E-01 5.9400000E-01 5.9400000E-01 5.9400000E-01
EXPONENTS  5.9400000E-01 5.9400000E-01 5.9400000E-01 5.9400000E-01 1.8540000E-01
EXPONENTS  1.8540000E-01 1.8540000E-01 1.8540000E-01 1.8540000E-01 1.8540000E-01
EXPONENTS  1.8540000E-01 1.8540000E-01 1.8540000E-01 1.8540000E-01 1.3490000E+00
EXPONENTS  1.3490000E+00 1.3490000E+00 1.3490000E+00 1.3490000E+00 1.3490000E+00
EXPONENTS  1.3490000E+00 1.3490000E+00 1.3490000E+00 1.3490000E+00 1.3490000E+00
EXPONENTS  1.3490000E+00 1.3490000E+00 1.3490000E+00 1.3490000E+00
MO    1                     OCC NO =   1.00000000 ORB. ENERGY = -280.56388290
  9.39478644E+00  6.94154089E+00  6.23388936E+00  6.43589143E+00  7.34102202E+00
  8.93926781E+00  1.10466754E+01  1.36084493E+01  1.40648339E+01  1.08900686E+01
  4.66580486E+00  3.47923109E-01  1.22174177E+00  2.53111203E+00  2.45566705E+00
  1.19994155E+00 -1.43657213E-02  1.52998655E-02 -5.11340893E-03  1.65805966E-03
 -3.21104424E-04  4.02650380E-05 -1.78775911E-05  2.90171606E-06  0.00000000E+00
  0.00000000E+00  0.00000000E+00  0.00000000E+00  0.00000000E+00  0.00000000E+00
  0.00000000E+00  0.00000000E+00  0.00000000E+00  0.00000000E+00  0.00000000E+00
  0.00000000E+00  0.00000000E+00  0.00000000E+00  0.00000000E+00  0.00000000E+00
  0.00000000E+00  0.00000000E+00  0.00000000E+00  0.00000000E+00  0.00000000E+00
  0.00000000E+00  0.00000000E+00  0.00000000E+00  0.00000000E+00  0.00000000E+00
  0.00000000E+00  0.00000000E+00  0.00000000E+00  0.00000000E+00  0.00000000E+00
  0.00000000E+00  0.00000000E+00  0.00000000E+00  0.00000000E+00  0.00000000E+00
  0.00000000E+00  0.00000000E+00  0.00000000E+00  0.00000000E+00  0.00000000E+00
  0.00000000E+00  0.00000000E+00  0.00000000E+00  0.00000000E+00  0.00000000E+00
  0.00000000E+00  0.00000000E+00  0.00000000E+00  0.00000000E+00  0.00000000E+00
  0.00000000E+00  0.00000000E+00  0.00000000E+00  0.00000000E+00  0.00000000E+00
  0.00000000E+00  0.00000000E+00  0.00000000E+00  0.00000000E+00  0.00000000E+00
  0.00000000E+00  0.00000000E+00  0.00000000E+00  0.00000000E+00  0.00000000E+00
  0.00000000E+00  0.00000000E+00  0.00000000E+00  0.00000000E+00  0.00000000E+00
  0.00000000E+00  0.00000000E+00  0.00000000E+00  0.00000000E+00  0.00000000E+00
  0.00000000E+00  0.00000000E+00  0.00000000E+00  0.00000000E+00  0.00000000E+00
  0.00000000E+00  0.00000000E+00  0.00000000E+00  0.00000000E+00  0.00000000E+00
  0.00000000E+00  0.00000000E+00  0.00000000E+00  0.00000000E+00  0.00000000E+00
  0.00000000E+00  0.00000000E+00  0.00000000E+00  0.00000000E+00  0.00000000E+00
  0.00000000E+00  0.00000000E+00  0.00000000E+00  0.00000000E+00  0.00000000E+00
  0.00000000E+00  0.00000000E+00  0.00000000E+00  0.00000000E+00  0.00000000E+00
  0.00000000E+00  0.00000000E+00  0.00000000E+00  0.00000000E+00  0.00000000E+00
  0.00000000E+00  0.00000000E+00  0.00000000E+00  0.00000000E+00  0.00000000E+00
  0.00000000E+00  0.00000000E+00  0.00000000E+00  0.00000000E+00  0.00000000E+00
  0.00000000E+00  0.00000000E+00  0.00000000E+00  0.00000000E+00  0.00000000E+00
  0.00000000E+00  0.00000000E+00  0.00000000E+00  0.00000000E+00  0.00000000E+00
  0.00000000E+00  0.00000000E+00  0.00000000E+00  0.00000000E+00  0.00000000E+00
  0.00000000E+00  0.00000000E+00  0.00000000E+00  0.00000000E+00  0.00000000E+00
  0.00000000E+00  0.00000000E+00  0.00000000E+00  0.00000000E+00  0.00000000E+00
  0.00000000E+00  0.00000000E+00  0.00000000E+00  0.00000000E+00  0.00000000E+00
  0.00000000E+00  0.00000000E+00  0.00000000E+00  0.00000000E+00  0.00000000E+00
  0.00000000E+00  0.00000000E+00  0.00000000E+00  0.00000000E+00  0.00000000E+00
  0.00000000E+00  0.00000000E+00  0.00000000E+00  0.00000000E+00  0.00000000E+00
  0.00000000E+00  0.00000000E+00  0.00000000E+00  0.00000000E+00  0.00000000E+00
  0.00000000E+00  0.00000000E+00  0.00000000E+00  0.00000000E+00
MO    2                     OCC NO =   1.00000000 ORB. ENERGY = -33.69054089
 -2.95076251E+00 -2.18023462E+00 -1.95797181E+00 -2.02141765E+00 -2.30570569E+00
 -2.80769089E+00 -3.46959624E+00 -4.27421126E+00 -4.41755489E+00 -3.42040837E+00
 -1.46545982E+00 -3.93419883E-01 -1.38150497E+00 -2.86209732E+00 -2.77678665E+00
  1.25543517E-01  3.07785377E+00  1.94288167E+00  2.30585974E-01 -1.25300766E-02
  2.40571338E-03 -2.60869842E-04  1.15482975E-04 -1.87250068E-05  0.00000000E+00
  0.00000000E+00  0.00000000E+00  0.00000000E+00  0.00000000E+00  0.00000000E+00
  0.00000000E+00  0.00000000E+00  0.00000000E+00  0.00000000E+00  0.00000000E+00
  0.00000000E+00  0.00000000E+00  0.00000000E+00  0.00000000E+00  0.00000000E+00
  0.00000000E+00  0.00000000E+00  0.00000000E+00  0.00000000E+00  0.00000000E+00
  0.00000000E+00  0.00000000E+00  0.00000000E+00  0.00000000E+00  0.00000000E+00
  0.00000000E+00  0.00000000E+00  0.00000000E+00  0.00000000E+00  0.00000000E+00
  0.00000000E+00  0.00000000E+00  0.00000000E+00  0.00000000E+00  0.00000000E+00
  0.00000000E+00  0.00000000E+00  0.00000000E+00  0.00000000E+00  0.00000000E+00
  0.00000000E+00  0.00000000E+00  0.00000000E+00  0.00000000E+00  0.00000000E+00
  0.00000000E+00  0.00000000E+00  0.00000000E+00  0.00000000E+00  0.00000000E+00
  0.00000000E+00  0.00000000E+00  0.00000000E+00  0.00000000E+00  0.00000000E+00
  0.00000000E+00  0.00000000E+00  0.00000000E+00  0.00000000E+00  0.00000000E+00
  0.00000000E+00  0.00000000E+00  0.00000000E+00  0.00000000E+00  0.00000000E+00
  0.00000000E+00  0.00000000E+00  0.00000000E+00  0.00000000E+00  0.00000000E+00
  0.00000000E+00  0.00000000E+00  0.00000000E+00  0.00000000E+00  0.00000000E+00
  0.00000000E+00  0.00000000E+00  0.00000000E+00  0.00000000E+00  0.00000000E+00
  0.00000000E+00  0.00000000E+00  0.00000000E+00  0.00000000E+00  0.00000000E+00
  0.00000000E+00  0.00000000E+00  0.00000000E+00  0.00000000E+00  0.00000000E+00
  0.00000000E+00  0.00000000E+00  0.00000000E+00  0.00000000E+00  0.00000000E+00
  0.00000000E+00  0.00000000E+00  0.00000000E+00  0.00000000E+00  0.00000000E+00
  0.00000000E+00  0.00000000E+00  0.00000000E+00  0.00000000E+00  0.00000000E+00
  0.00000000E+00  0.00000000E+00  0.00000000E+00  0.00000000E+00  0.00000000E+00
  0.00000000E+00  0.00000000E+00  0.00000000E+00  0.00000000E+00  0.00000000E+00
  0.00000000E+00  0.00000000E+00  0.00000000E+00  0.00000000E+00  0.00000000E+00
  0.00000000E+00  0.00000000E+00  0.00000000E+00  0.00000000E+00  0.00000000E+00
  0.00000000E+00  0.00000000E+00  0.00000000E+00  0.00000000E+00  0.00000000E+00
  0.00000000E+00  0.00000000E+00  0.00000000E+00  0.00000000E+00  0.00000000E+00
  0.00000000E+00  0.00000000E+00  0.00000000E+00  0.00000000E+00  0.00000000E+00
  0.00000000E+00  0.00000000E+00  0.00000000E+00  0.00000000E+00  0.00000000E+00
  0.00000000E+00  0.00000000E+00  0.00000000E+00  0.00000000E+00  0.00000000E+00
  0.00000000E+00  0.00000000E+00  0.00000000E+00  0.00000000E+00  0.00000000E+00
  0.00000000E+00  0.00000000E+00  0.00000000E+00  0.00000000E+00  0.00000000E+00
  0.00000000E+00  0.00000000E+00  0.00000000E+00  0.00000000E+00  0.00000000E+00
  0.00000000E+00  0.00000000E+00  0.00000000E+00  0.00000000E+00  0.00000000E+00
  0.00000000E+00  0.00000000E+00  0.00000000E+00  0.00000000E+00
MO    3                     OCC NO =   1.00000000 ORB. ENERGY =  -4.07569593
  1.12190124E+00  8.28940967E-01  7.44435040E-01  7.68557608E-01  8.76645976E-01
  1.06750438E+00  1.31916558E+00  1.62508603E+00  1.67958631E+00  1.30046400E+00
  5.57178421E-01  1.69681975E-01  5.95843022E-01  1.23442243E+00  1.19762794E+00
 -6.41517993E-02 -1.84718338E+00 -1.73421224E+00  1.91927110E-01  8.09320881E-01
  2.40432372E-01  3.80903573E-03 -1.09269770E-03  1.50951020E-04  0.00000000E+00
  0.00000000E+00  0.00000000E+00  0.00000000E+00  0.00000000E+00  0.00000000E+00
  0.00000000E+00  0.00000000E+00  0.00000000E+00  0.00000000E+00  0.00000000E+00
  0.00000000E+00  0.00000000E+00  0.00000000E+00  0.00000000E+00  0.00000000E+00
  0.00000000E+00  0.00000000E+00  0.00000000E+00  0.00000000E+00  0.00000000E+00
  0.00000000E+00  0.00000000E+00  0.00000000E+00  0.00000000E+00  0.00000000E+00
  0.00000000E+00  0.00000000E+00  0.00000000E+00  0.00000000E+00  0.00000000E+00
  0.00000000E+00  0.00000000E+00  0.00000000E+00  0.00000000E+00  0.00000000E+00
  0.00000000E+00  0.00000000E+00  0.00000000E+00  0.00000000E+00  0.00000000E+00
  0.00000000E+00  0.00000000E+00  0.00000000E+00  0.00000000E+00  0.00000000E+00
  0.00000000E+00  0.00000000E+00  0.00000000E+00  0.00000000E+00  0.00000000E+00
  0.00000000E+00  0.00000000E+00  0.00000000E+00  0.00000000E+00  0.00000000E+00
  0.00000000E+00  0.00000000E+00  0.00000000E+00  0.00000000E+00  0.00000000E+00
  0.00000000E+00  0.00000000E+00  0.00000000E+00  0.00000000E+00  0.00000000E+00
  0.00000000E+00  0.00000000E+00  0.00000000E+00  0.00000000E+00  0.00000000E+00
  0.00000000E+00  0.00000000E+00  0.00000000E+00  0.00000000E+00  0.00000000E+00
  0.00000000E+00  0.00000000E+00  0.00000000E+00  0.00000000E+00  0.00000000E+00
  0.00000000E+00  0.00000000E+00  0.00000000E+00  0.00000000E+00  0.00000000E+00
  0.00000000E+00  0.00000000E+00  0.00000000E+00  0.00000000E+00  0.00000000E+00
  0.00000000E+00  0.00000000E+00  0.00000000E+00  0.00000000E+00  0.00000000E+00
  0.00000000E+00  0.00000000E+00  0.00000000E+00  0.00000000E+00  0.00000000E+00
  0.00000000E+00  0.00000000E+00  0.00000000E+00  0.00000000E+00  0.00000000E+00
  0.00000000E+00  0.00000000E+00  0.00000000E+00  0.00000000E+00  0.00000000E+00
  0.00000000E+00  0.00000000E+00  0.00000000E+00  0.00000000E+00  0.00000000E+00
  0.00000000E+00  0.00000000E+00  0.00000000E+00  0.00000000E+00  0.00000000E+00
  0.00000000E+00  0.00000000E+00  0.00000000E+00  0.00000000E+00  0.00000000E+00
  0.00000000E+00  0.00000000E+00  0.00000000E+00  0.00000000E+00  0.00000000E+00
  0.00000000E+00  0.00000000E+00  0.00000000E+00  0.00000000E+00  0.00000000E+00
  0.00000000E+00  0.00000000E+00  0.00000000E+00  0.00000000E+00  0.00000000E+00
  0.00000000E+00  0.00000000E+00  0.00000000E+00  0.00000000E+00  0.00000000E+00
  0.00000000E+00  0.00000000E+00  0.00000000E+00  0.00000000E+00  0.00000000E+00
  0.00000000E+00  0.00000000E+00  0.00000000E+00  0.00000000E+00  0.00000000E+00
  0.00000000E+00  0.00000000E+00  0.00000000E+00  0.00000000E+00  0.00000000E+00
  0.00000000E+00  0.00000000E+00  0.00000000E+00  0.00000000E+00  0.00000000E+00
  0.00000000E+00  0.00000000E+00  0.00000000E+00  0.00000000E+00  0.00000000E+00
  0.00000000E+00  0.00000000E+00  0.00000000E+00  0.00000000E+00
MO    4                     OCC NO =   1.00000000 ORB. ENERGY =  -0.23675883
 -2.77793615E-01 -2.05253813E-01 -1.84329327E-01 -1.90302308E-01 -2.17066035E-01
 -2.64324425E-01 -3.26638175E-01 -4.02387042E-01 -4.15881840E-01 -3.22007482E-01
 -1.37962774E-01 -4.25361279E-02 -1.49366808E-01 -3.09446835E-01 -3.00223138E-01
  1.22398248E-02  4.93041378E-01  4.71232883E-01 -5.08578223E-02 -3.31266516E-01
 -1.42017742E-01  8.61907757E-02  5.54354122E-02  1.07907952E-02  0.00000000E+00
  0.00000000E+00  0.00000000E+00  0.00000000E+00  0.00000000E+00  0.00000000E+00
  0.00000000E+00  0.00000000E+00  0.00000000E+00  0.00000000E+00  0.00000000E+00
  0.00000000E+00  0.00000000E+00  0.00000000E+00  0.00000000E+00  0.00000000E+00
  0.00000000E+00  0.00000000E+00  0.00000000E+00  0.00000000E+00  0.00000000E+00
  0.00000000E+00  0.00000000E+00  0.00000000E+00  0.00000000E+00  0.00000000E+00
  0.00000000E+00  0.00000000E+00  0.00000000E+00  0.00000000E+00  0.00000000E+00
  0.00000000E+00  0.00000000E+00  0.00000000E+00  0.00000000E+00  0.00000000E+00
  0.00000000E+00  0.00000000E+00  0.00000000E+00  0.00000000E+00  0.00000000E+00
  0.00000000E+00  0.00000000E+00  0.00000000E+00  0.00000000E+00  0.00000000E+00
  0.00000000E+00  0.00000000E+00  0.00000000E+00  0.00000000E+00  0.00000000E+00
  0.00000000E+00  0.00000000E+00  0.00000000E+00  0.00000000E+00  0.00000000E+00
  0.00000000E+00  0.00000000E+00  0.00000000E+00  0.00000000E+00  0.00000000E+00
  0.00000000E+00  0.00000000E+00  0.00000000E+00  0.00000000E+00  0.00000000E+00
  0.00000000E+00  0.00000000E+00  0.00000000E+00  0.00000000E+00  0.00000000E+00
  0.00000000E+00  0.00000000E+00  0.00000000E+00  0.00000000E+00  0.00000000E+00
  0.00000000E+00  0.00000000E+00  0.00000000E+00  0.00000000E+00  0.00000000E+00
  0.00000000E+00  0.00000000E+00  0.00000000E+00  0.00000000E+00  0.00000000E+00
  0.00000000E+00  0.00000000E+00  0.00000000E+00  0.00000000E+00  0.00000000E+00
  0.00000000E+00  0.00000000E+00  0.00000000E+00  0.00000000E+00  0.00000000E+00
  0.00000000E+00  0.00000000E+00  0.00000000E+00  0.00000000E+00  0.00000000E+00
  0.00000000E+00  0.00000000E+00  0.00000000E+00  0.00000000E+00  0.00000000E+00
  0.00000000E+00  0.00000000E+00  0.00000000E+00  0.00000000E+00  0.00000000E+00
  0.00000000E+00  0.00000000E+00  0.00000000E+00  0.00000000E+00  0.00000000E+00
  0.00000000E+00  0.00000000E+00  0.00000000E+00  0.00000000E+00  0.00000000E+00
  0.00000000E+00  0.00000000E+00  0.00000000E+00  0.00000000E+00  0.00000000E+00
  0.00000000E+00  0.00000000E+00  0.00000000E+00  0.00000000E+00  0.00000000E+00
  0.00000000E+00  0.00000000E+00  0.00000000E+00  0.00000000E+00  0.00000000E+00
  0.00000000E+00  0.00000000E+00  0.00000000E+00  0.00000000E+00  0.00000000E+00
  0.00000000E+00  0.00000000E+00  0.00000000E+00  0.00000000E+00  0.00000000E+00
  0.00000000E+00  0.00000000E+00  0.00000000E+00  0.00000000E+00  0.00000000E+00
  0.00000000E+00  0.00000000E+00  0.00000000E+00  0.00000000E+00  0.00000000E+00
  0.00000000E+00  0.00000000E+00  0.00000000E+00  0.00000000E+00  0.00000000E+00
  0.00000000E+00  0.00000000E+00  0.00000000E+00  0.00000000E+00  0.00000000E+00
  0.00000000E+00  0.00000000E+00  0.00000000E+00  0.00000000E+00  0.00000000E+00
  0.00000000E+00  0.00000000E+00  0.00000000E+00  0.00000000E+00
MO    5                     OCC NO =   1.00000000 ORB. ENERGY = -28.82209465
  0.00000000E+00  0.00000000E+00  0.00000000E+00  0.00000000E+00  0.00000000E+00
  0.00000000E+00  0.00000000E+00  0.00000000E+00  0.00000000E+00  0.00000000E+00
  0.00000000E+00  0.00000000E+00  0.00000000E+00  0.00000000E+00  0.00000000E+00
  0.00000000E+00  0.00000000E+00  0.00000000E+00  0.00000000E+00  0.00000000E+00
  0.00000000E+00  0.00000000E+00  0.00000000E+00  0.00000000E+00  3.79971664E+01
  0.00000000E+00  0.00000000E+00  2.95897158E+01  0.00000000E+00  0.00000000E+00
  3.55066551E+01  0.00000000E+00  0.00000000E+00  4.53171928E+01  0.00000000E+00
  0.00000000E+00  5.24381045E+01  0.00000000E+00  0.00000000E+00  5.34533139E+01
  0.00000000E+00  0.00000000E+00  4.58664679E+01  0.00000000E+00  0.00000000E+00
  2.76706524E+01  0.00000000E+00  0.00000000E+00  9.21380019E+00  0.00000000E+00
  0.00000000E+00  1.03242146E+00  0.00000000E+00  0.00000000E+00 -7.53181974E-02
  0.00000000E+00  0.00000000E+00 -1.41398817E-02  0.00000000E+00  0.00000000E+00
 -1.73510718E-02  0.00000000E+00  0.00000000E+00  2.34661327E-02  0.00000000E+00
  0.00000000E+00  1.87890198E-02  0.00000000E+00  0.00000000E+00  5.77586638E-03
  0.00000000E+00  0.00000000E+00 -2.36077986E-03  0.00000000E+00  0.00000000E+00
  5.74207409E-04  0.00000000E+00  0.00000000E+00 -1.07200566E-04  0.00000000E+00
  0.00000000E+00  1.15273390E-05  0.00000000E+00  0.00000000E+00  0.00000000E+00
  0.00000000E+00  0.00000000E+00  0.00000000E+00  0.00000000E+00  0.00000000E+00
  0.00000000E+00  0.00000000E+00  0.00000000E+00  0.00000000E+00  0.00000000E+00
  0.00000000E+00  0.00000000E+00  0.00000000E+00  0.00000000E+00  0.00000000E+00
  0.00000000E+00  0.00000000E+00  0.00000000E+00  0.00000000E+00  0.00000000E+00
  0.00000000E+00  0.00000000E+00  0.00000000E+00  0.00000000E+00  0.00000000E+00
  0.00000000E+00  0.00000000E+00  0.00000000E+00  0.00000000E+00  0.00000000E+00
  0.00000000E+00  0.00000000E+00  0.00000000E+00  0.00000000E+00  0.00000000E+00
  0.00000000E+00  0.00000000E+00  0.00000000E+00  0.00000000E+00  0.00000000E+00
  0.00000000E+00  0.00000000E+00  0.00000000E+00  0.00000000E+00  0.00000000E+00
  0.00000000E+00  0.00000000E+00  0.00000000E+00  0.00000000E+00  0.00000000E+00
  0.00000000E+00  0.00000000E+00  0.00000000E+00  0.00000000E+00  0.00000000E+00
  0.00000000E+00  0.00000000E+00  0.00000000E+00  0.00000000E+00  0.00000000E+00
  0.00000000E+00  0.00000000E+00  0.00000000E+00  0.00000000E+00  0.00000000E+00
  0.00000000E+00  0.00000000E+00  0.00000000E+00  0.00000000E+00  0.00000000E+00
  0.00000000E+00  0.00000000E+00  0.00000000E+00  0.00000000E+00  0.00000000E+00
  0.00000000E+00  0.00000000E+00  0.00000000E+00  0.00000000E+00  0.00000000E+00
  0.00000000E+00  0.00000000E+00  0.00000000E+00  0.00000000E+00  0.00000000E+00
  0.00000000E+00  0.00000000E+00  0.00000000E+00  0.00000000E+00  0.00000000E+00
  0.00000000E+00  0.00000000E+00  0.00000000E+00  0.00000000E+00  0.00000000E+00
  0.00000000E+00  0.00000000E+00  0.00000000E+00  0.00000000E+00  0.00000000E+00
  0.00000000E+00  0.00000000E+00  0.00000000E+00  0.00000000E+00  0.00000000E+00
  0.00000000E+00  0.00000000E+00  0.00000000E+00  0.00000000E+00  0.00000000E+00
  0.00000000E+00  0.00000000E+00  0.00000000E+00  0.00000000E+00
MO    6                     OCC NO =   1.00000000 ORB. ENERGY = -28.82209465
  0.00000000E+00  0.00000000E+00  0.00000000E+00  0.00000000E+00  0.00000000E+00
  0.00000000E+00  0.00000000E+00  0.00000000E+00  0.00000000E+00  0.00000000E+00
  0.00000000E+00  0.00000000E+00  0.00000000E+00  0.00000000E+00  0.00000000E+00
  0.00000000E+00  0.00000000E+00  0.00000000E+00  0.00000000E+00  0.00000000E+00
  0.00000000E+00  0.00000000E+00  0.00000000E+00  0.00000000E+00  0.00000000E+00
  3.79971664E+01  0.00000000E+00  0.00000000E+00  2.95897158E+01  0.00000000E+00
  0.00000000E+00  3.55066551E+01  0.00000000E+00  0.00000000E+00  4.53171928E+01
  0.00000000E+00  0.00000000E+00  5.24381045E+01  0.00000000E+00  0.00000000E+00
  5.34533139E+01  0.00000000E+00  0.00000000E+00  4.58664679E+01  0.00000000E+00
  0.00000000E+00  2.76706524E+01  0.00000000E+00  0.00000000E+00  9.21380019E+00
  0.00000000E+00  0.00000000E+00  1.03242146E+00  0.00000000E+00  0.00000000E+00
 -7.53181974E-02  0.00000000E+00  0.00000000E+00 -1.41398817E-02  0.00000000E+00
  0.00000000E+00 -1.73510718E-02  0.00000000E+00  0.00000000E+00  2.34661327E-02
  0.00000000E+00  0.00000000E+00  1.87890198E-02  0.00000000E+00  0.00000000E+00
  5.77586638E-03  0.00000000E+00  0.00000000E+00 -2.36077986E-03  0.00000000E+00
  0.00000000E+00  5.74207409E-04  0.00000000E+00  0.00000000E+00 -1.07200566E-04
  0.00000000E+00  0.00000000E+00  1.15273390E-05  0.00000000E+00  0.00000000E+00
  0.00000000E+00  0.00000000E+00  0.00000000E+00  0.00000000E+00  0.00000000E+00
  0.00000000E+00  0.00000000E+00  0.00000000E+00  0.00000000E+00  0.00000000E+00
  0.00000000E+00  0.00000000E+00  0.00000000E+00  0.00000000E+00  0.00000000E+00
  0.00000000E+00  0.00000000E+00  0.00000000E+00  0.00000000E+00  0.00000000E+00
  0.00000000E+00  0.00000000E+00  0.00000000E+00  0.00000000E+00  0.00000000E+00
  0.00000000E+00  0.00000000E+00  0.00000000E+00  0.00000000E+00  0.00000000E+00
  0.00000000E+00  0.00000000E+00  0.00000000E+00  0.00000000E+00  0.00000000E+00
  0.00000000E+00  0.00000000E+00  0.00000000E+00  0.00000000E+00  0.00000000E+00
  0.00000000E+00  0.00000000E+00  0.00000000E+00  0.00000000E+00  0.00000000E+00
  0.00000000E+00  0.00000000E+00  0.00000000E+00  0.00000000E+00  0.00000000E+00
  0.00000000E+00  0.00000000E+00  0.00000000E+00  0.00000000E+00  0.00000000E+00
  0.00000000E+00  0.00000000E+00  0.00000000E+00  0.00000000E+00  0.00000000E+00
  0.00000000E+00  0.00000000E+00  0.00000000E+00  0.00000000E+00  0.00000000E+00
  0.00000000E+00  0.00000000E+00  0.00000000E+00  0.00000000E+00  0.00000000E+00
  0.00000000E+00  0.00000000E+00  0.00000000E+00  0.00000000E+00  0.00000000E+00
  0.00000000E+00  0.00000000E+00  0.00000000E+00  0.00000000E+00  0.00000000E+00
  0.00000000E+00  0.00000000E+00  0.00000000E+00  0.00000000E+00  0.00000000E+00
  0.00000000E+00  0.00000000E+00  0.00000000E+00  0.00000000E+00  0.00000000E+00
  0.00000000E+00  0.00000000E+00  0.00000000E+00  0.00000000E+00  0.00000000E+00
  0.00000000E+00  0.00000000E+00  0.00000000E+00  0.00000000E+00  0.00000000E+00
  0.00000000E+00  0.00000000E+00  0.00000000E+00  0.00000000E+00  0.00000000E+00
  0.00000000E+00  0.00000000E+00  0.00000000E+00  0.00000000E+00  0.00000000E+00
  0.00000000E+00  0.00000000E+00  0.00000000E+00  0.00000000E+00
MO    7                     OCC NO =   1.00000000 ORB. ENERGY = -28.82209465
  0.00000000E+00  0.00000000E+00  0.00000000E+00  0.00000000E+00  0.00000000E+00
  0.00000000E+00  0.00000000E+00  0.00000000E+00  0.00000000E+00  0.00000000E+00
  0.00000000E+00  0.00000000E+00  0.00000000E+00  0.00000000E+00  0.00000000E+00
  0.00000000E+00  0.00000000E+00  0.00000000E+00  0.00000000E+00  0.00000000E+00
  0.00000000E+00  0.00000000E+00  0.00000000E+00  0.00000000E+00  0.00000000E+00
  0.00000000E+00  3.79971664E+01  0.00000000E+00  0.00000000E+00  2.95897158E+01
  0.00000000E+00  0.00000000E+00  3.55066551E+01  0.00000000E+00  0.00000000E+00
  4.53171928E+01  0.00000000E+00  0.00000000E+00  5.24381045E+01  0.00000000E+00
  0.00000000E+00  5.34533139E+01  0.00000000E+00  0.00000000E+00  4.58664679E+01
  0.00000000E+00  0.00000000E+00  2.76706524E+01  0.00000000E+00  0.00000000E+00
  9.21380019E+00  0.00000000E+00  0.00000000E+00  1.03242146E+00  0.00000000E+00
  0.00000000E+00 -7.53181974E-02  0.00000000E+00  0.00000000E+00 -1.41398817E-02
  0.00000000E+00  0.00000000E+00 -1.73510718E-02  0.00000000E+00  0.00000000E+00
  2.34661327E-02  0.00000000E+00  0.00000000E+00  1.87890198E-02  0.00000000E+00
  0.00000000E+00  5.77586638E-03  0.00000000E+00  0.00000000E+00 -2.36077986E-03
  0.00000000E+00  0.00000000E+00  5.74207409E-04  0.00000000E+00  0.00000000E+00
 -1.07200566E-04  0.00000000E+00  0.00000000E+00  1.15273390E-05  0.00000000E+00
  0.00000000E+00  0.00000000E+00  0.00000000E+00  0.00000000E+00  0.00000000E+00
  0.00000000E+00  0.00000000E+00  0.00000000E+00  0.00000000E+00  0.00000000E+00
  0.00000000E+00  0.00000000E+00  0.00000000E+00  0.00000000E+00  0.00000000E+00
  0.00000000E+00  0.00000000E+00  0.00000000E+00  0.00000000E+00  0.00000000E+00
  0.00000000E+00  0.00000000E+00  0.00000000E+00  0.00000000E+00  0.00000000E+00
  0.00000000E+00  0.00000000E+00  0.00000000E+00  0.00000000E+00  0.00000000E+00
  0.00000000E+00  0.00000000E+00  0.00000000E+00  0.00000000E+00  0.00000000E+00
  0.00000000E+00  0.00000000E+00  0.00000000E+00  0.00000000E+00  0.00000000E+00
  0.00000000E+00  0.00000000E+00  0.00000000E+00  0.00000000E+00  0.00000000E+00
  0.00000000E+00  0.00000000E+00  0.00000000E+00  0.00000000E+00  0.00000000E+00
  0.00000000E+00  0.00000000E+00  0.00000000E+00  0.00000000E+00  0.00000000E+00
  0.00000000E+00  0.00000000E+00  0.00000000E+00  0.00000000E+00  0.00000000E+00
  0.00000000E+00  0.00000000E+00  0.00000000E+00  0.00000000E+00  0.00000000E+00
  0.00000000E+00  0.00000000E+00  0.00000000E+00  0.00000000E+00  0.00000000E+00
  0.00000000E+00  0.00000000E+00  0.00000000E+00  0.00000000E+00  0.00000000E+00
  0.00000000E+00  0.00000000E+00  0.00000000E+00  0.00000000E+00  0.00000000E+00
  0.00000000E+00  0.00000000E+00  0.00000000E+00  0.00000000E+00  0.00000000E+00
  0.00000000E+00  0.00000000E+00  0.00000000E+00  0.00000000E+00  0.00000000E+00
  0.00000000E+00  0.00000000E+00  0.00000000E+00  0.00000000E+00  0.00000000E+00
  0.00000000E+00  0.00000000E+00  0.00000000E+00  0.00000000E+00  0.00000000E+00
  0.00000000E+00  0.00000000E+00  0.00000000E+00  0.00000000E+00  0.00000000E+00
  0.00000000E+00  0.00000000E+00  0.00000000E+00  0.00000000E+00  0.00000000E+00
  0.00000000E+00  0.00000000E+00  0.00000000E+00  0.00000000E+00
MO    8                     OCC NO =   1.00000000 ORB. ENERGY =  -2.66884028
  0.00000000E+00  0.00000000E+00  0.00000000E+00  0.00000000E+00  0.00000000E+00
  0.00000000E+00  0.00000000E+00  0.00000000E+00  0.00000000E+00  0.00000000E+00
  0.00000000E+00  0.00000000E+00  0.00000000E+00  0.00000000E+00  0.00000000E+00
  0.00000000E+00  0.00000000E+00  0.00000000E+00  0.00000000E+00  0.00000000E+00
  0.00000000E+00  0.00000000E+00  0.00000000E+00  0.00000000E+00 -1.45350441E+01
  0.00000000E+00  0.00000000E+00 -1.13189447E+01  0.00000000E+00  0.00000000E+00
 -1.35823496E+01  0.00000000E+00  0.00000000E+00 -1.73351715E+01  0.00000000E+00
  0.00000000E+00 -2.00591316E+01  0.00000000E+00  0.00000000E+00 -2.04474794E+01
  0.00000000E+00  0.00000000E+00 -1.75452856E+01  0.00000000E+00  0.00000000E+00
 -1.05848460E+01  0.00000000E+00  0.00000000E+00 -3.52455209E+00  0.00000000E+00
  0.00000000E+00 -3.94931855E-01  0.00000000E+00  0.00000000E+00  2.40017210E-01
  0.00000000E+00  0.00000000E+00 -1.46098697E+00  0.00000000E+00  0.00000000E+00
 -1.79277948E+00  0.00000000E+00  0.00000000E+00  2.42461109E+00  0.00000000E+00
  0.00000000E+00  1.94135380E+00  0.00000000E+00  0.00000000E+00  5.96784731E-01
  0.00000000E+00  0.00000000E+00  4.17910652E-02  0.00000000E+00  0.00000000E+00
  1.18572408E-03  0.00000000E+00  0.00000000E+00 -1.84503700E-04  0.00000000E+00
  0.00000000E+00  2.23923423E-05  0.00000000E+00  0.00000000E+00  0.00000000E+00
  0.00000000E+00  0.00000000E+00  0.00000000E+00  0.00000000E+00  0.00000000E+00
  0.00000000E+00  0.00000000E+00  0.00000000E+00  0.00000000E+00  0.00000000E+00
  0.00000000E+00  0.00000000E+00  0.00000000E+00  0.00000000E+00  0.00000000E+00
  0.00000000E+00  0.00000000E+00  0.00000000E+00  0.00000000E+00  0.00000000E+00
  0.00000000E+00  0.00000000E+00  0.00000000E+00  0.00000000E+00  0.00000000E+00