atomref-proatoms Cr_q0_mult7_nist x2c-QZVPall
GAUSSIAN             24 MOL ORBITALS    183 PRIMITIVES        1 NUCLEI
  Cr   1    (CENTRE  1)   0.00000000  0.00000000  0.00000000  CHARGE = 24.0
CENTRE ASSIGNMENTS    1  1  1  1  1  1  1  1  1  1  1  1  1  1  1  1  1  1  1  1
CENTRE ASSIGNMENTS    1  1  1  1  1  1  1  1  1  1  1  1  1  1  1  1  1  1  1  1
CENTRE ASSIGNMENTS    1  1  1  1  1  1  1  1  1  1  1  1  1  1  1  1  1  1  1  1
CENTRE ASSIGNMENTS    1  1  1  1  1  1  1  1  1  1  1  1  1  1  1  1  1  1  1  1
CENTRE ASSIGNMENTS    1  1  1  1  1  1  1  1  1  1  1  1  1  1  1  1  1  1  1  1
CENTRE ASSIGNMENTS    1  1  1  1  1  1  1  1  1  1  1  1  1  1  1  1  1  1  1  1
CENTRE ASSIGNMENTS    1  1  1  1  1  1  1  1  1  1  1  1  1  1  1  1  1  1  1  1
CENTRE ASSIGNMENTS    1  1  1  1  1  1  1  1  1  1  1  1  1  1  1  1  1  1  1  1
CENTRE ASSIGNMENTS    1  1  1  1  1  1  1  1  1  1  1  1  1  1  1  1  1  1  1  1
CENTRE ASSIGNMENTS    1  1  1
TYPE ASSIGNMENTS      1  1  1  1  1  1  1  1  1  1  1  1  1  1  1  1  1  1  1  1
TYPE ASSIGNMENTS      1  1  1  1  2  3  4  2  3  4  2  3  4  2  3  4  2  3  4  2
TYPE ASSIGNMENTS      3  4  2  3  4  2  3  4  2  3  4  2  3  4  2  3  4  2  3  4
TYPE ASSIGNMENTS      2  3  4  2  3  4  2  3  4  2  3  4  2  3  4  2  3  4  2  3
TYPE ASSIGNMENTS      4  2  3  4  5  8  9  6 10  7  5  8  9  6 10  7  5  8  9  6
TYPE ASSIGNMENTS     10  7  5  8  9  6 10  7  5  8  9  6 10  7  5  8  9  6 10  7
TYPE ASSIGNMENTS      5  8  9  6 10  7  5  8  9  6 10  7  5  8  9  6 10  7 11 14
TYPE ASSIGNMENTS     15 17 20 18 12 16 19 13 11 14 15 17 20 18 12 16 19 13 11 14
TYPE ASSIGNMENTS     15 17 20 18 12 16 19 13 21 24 25 30 33 31 26 34 35 28 22 27
TYPE ASSIGNMENTS     32 29 23
EXPONENTS  6.5624622E+06 8.2699714E+05 1.6956274E+05 4.5357669E+04 1.4331277E+04
EXPONENTS  5.0673617E+03 1.9554145E+03 8.0090751E+02 3.4545812E+02 1.5684103E+02
EXPONENTS  7.3734173E+01 1.2672555E+03 3.7762896E+02 1.4485399E+02 6.3671549E+01
EXPONENTS  3.2438167E+01 1.4159196E+01 6.6748335E+00 2.9268820E+00 1.3812303E+00
EXPONENTS  5.9996753E-01 1.2943773E-01 6.4752099E-02 2.8839975E-02 2.4164680E+04
EXPONENTS  2.4164680E+04 2.4164680E+04 5.9570089E+03 5.9570089E+03 5.9570089E+03
EXPONENTS  1.6770328E+03 1.6770328E+03 1.6770328E+03 5.3916409E+02 5.3916409E+02
EXPONENTS  5.3916409E+02 1.9795500E+02 1.9795500E+02 1.9795500E+02 8.3432113E+01
EXPONENTS  8.3432113E+01 8.3432113E+01 3.7126704E+01 3.7126704E+01 3.7126704E+01
EXPONENTS  1.7223322E+01 1.7223322E+01 1.7223322E+01 8.2116335E+00 8.2116335E+00
EXPONENTS  8.2116335E+00 3.8155723E+00 3.8155723E+00 3.8155723E+00 1.2500000E+01
EXPONENTS  1.2500000E+01 1.2500000E+01 5.1471576E+01 5.1471576E+01 5.1471576E+01
EXPONENTS  1.8063813E+01 1.8063813E+01 1.8063813E+01 3.5722752E+00 3.5722752E+00
EXPONENTS  3.5722752E+00 1.6559048E+00 1.6559048E+00 1.6559048E+00 7.4694849E-01
EXPONENTS  7.4694849E-01 7.4694849E-01 3.1030070E-01 3.1030070E-01 3.1030070E-01
EXPONENTS  1.3500000E-01 1.3500000E-01 1.3500000E-01 5.9000000E-02 5.9000000E-02
EXPONENTS  5.9000000E-02 2.6000000E-02 2.6000000E-02 2.6000000E-02 1.1955633E+02
EXPONENTS  1.1955633E+02 1.1955633E+02 1.1955633E+02 1.1955633E+02 1.1955633E+02
EXPONENTS  3.5384287E+01 3.5384287E+01 3.5384287E+01 3.5384287E+01 3.5384287E+01
EXPONENTS  3.5384287E+01 1.3087902E+01 1.3087902E+01 1.3087902E+01 1.3087902E+01
EXPONENTS  1.3087902E+01 1.3087902E+01 5.3509107E+00 5.3509107E+00 5.3509107E+00
EXPONENTS  5.3509107E+00 5.3509107E+00 5.3509107E+00 2.2977051E+00 2.2977051E+00
EXPONENTS  2.2977051E+00 2.2977051E+00 2.2977051E+00 2.2977051E+00 9.7801123E-01
EXPONENTS  9.7801123E-01 9.7801123E-01 9.7801123E-01 9.7801123E-01 9.7801123E-01
EXPONENTS  4.0086486E-01 4.0086486E-01 4.0086486E-01 4.0086486E-01 4.0086486E-01
EXPONENTS  4.0086486E-01 1.4986334E-01 1.4986334E-01 1.4986334E-01 1.4986334E-01
EXPONENTS  1.4986334E-01 1.4986334E-01 6.0000000E-02 6.0000000E-02 6.0000000E-02
EXPONENTS  6.0000000E-02 6.0000000E-02 6.0000000E-02 3.7330000E+00 3.7330000E+00
EXPONENTS  3.7330000E+00 3.7330000E+00 3.7330000E+00 3.7330000E+00 3.7330000E+00
EXPONENTS  3.7330000E+00 3.7330000E+00 3.7330000E+00 1.1470000E+00 1.1470000E+00
EXPONENTS  1.1470000E+00 1.1470000E+00 1.1470000E+00 1.1470000E+00 1.1470000E+00
EXPONENTS  1.1470000E+00 1.1470000E+00 1.1470000E+00 3.6600000E-01 3.6600000E-01
EXPONENTS  3.6600000E-01 3.6600000E-01 3.6600000E-01 3.6600000E-01 3.6600000E-01
EXPONENTS  3.6600000E-01 3.6600000E-01 3.6600000E-01 1.3820000E+00 1.3820000E+00
EXPONENTS  1.3820000E+00 1.3820000E+00 1.3820000E+00 1.3820000E+00 1.3820000E+00
EXPONENTS  1.3820000E+00 1.3820000E+00 1.3820000E+00 1.3820000E+00 1.3820000E+00
EXPONENTS  1.3820000E+00 1.3820000E+00 1.3820000E+00
MO    1                     OCC NO =   1.00000000 ORB. ENERGY = -217.43149934
  6.70041569E+00  4.93735874E+00  4.54418983E+00  4.87768826E+00  5.78125163E+00
  7.30477815E+00  9.27976857E+00  1.15107533E+01  1.21313522E+01  9.45804721E+00
  4.06384002E+00  1.86009721E-01  6.60593686E-01  1.37615434E+00  1.34735818E+00
  9.57253547E-01 -1.01141059E-02  1.19860599E-02 -4.12216586E-03  1.31220339E-03
 -2.58254260E-04  3.51819376E-05 -1.68318173E-05  2.72876258E-06  0.00000000E+00
  0.00000000E+00  0.00000000E+00  0.00000000E+00  0.00000000E+00  0.00000000E+00
  0.00000000E+00  0.00000000E+00  0.00000000E+00  0.00000000E+00  0.00000000E+00
  0.00000000E+00  0.00000000E+00  0.00000000E+00  0.00000000E+00  0.00000000E+00
  0.00000000E+00  0.00000000E+00  0.00000000E+00  0.00000000E+00  0.00000000E+00
  0.00000000E+00  0.00000000E+00  0.00000000E+00  0.00000000E+00  0.00000000E+00
  0.00000000E+00  0.00000000E+00  0.00000000E+00  0.00000000E+00  0.00000000E+00
  0.00000000E+00  0.00000000E+00  0.00000000E+00  0.00000000E+00  0.00000000E+00
  0.00000000E+00  0.00000000E+00  0.00000000E+00  0.00000000E+00  0.00000000E+00
  0.00000000E+00  0.00000000E+00  0.00000000E+00  0.00000000E+00  0.00000000E+00
  0.00000000E+00  0.00000000E+00  0.00000000E+00  0.00000000E+00  0.00000000E+00
  0.00000000E+00  0.00000000E+00  0.00000000E+00  0.00000000E+00  0.00000000E+00
  0.00000000E+00  0.00000000E+00  0.00000000E+00  0.00000000E+00  0.00000000E+00
  0.00000000E+00  0.00000000E+00  0.00000000E+00  0.00000000E+00  0.00000000E+00
  0.00000000E+00  0.00000000E+00  0.00000000E+00  0.00000000E+00  0.00000000E+00
  0.00000000E+00  0.00000000E+00  0.00000000E+00  0.00000000E+00  0.00000000E+00
  0.00000000E+00  0.00000000E+00  0.00000000E+00  0.00000000E+00  0.00000000E+00
  0.00000000E+00  0.00000000E+00  0.00000000E+00  0.00000000E+00  0.00000000E+00
  0.00000000E+00  0.00000000E+00  0.00000000E+00  0.00000000E+00  0.00000000E+00
  0.00000000E+00  0.00000000E+00  0.00000000E+00  0.00000000E+00  0.00000000E+00
  0.00000000E+00  0.00000000E+00  0.00000000E+00  0.00000000E+00  0.00000000E+00
  0.00000000E+00  0.00000000E+00  0.00000000E+00  0.00000000E+00  0.00000000E+00
  0.00000000E+00  0.00000000E+00  0.00000000E+00  0.00000000E+00  0.00000000E+00
  0.00000000E+00  0.00000000E+00  0.00000000E+00  0.00000000E+00  0.00000000E+00
  0.00000000E+00  0.00000000E+00  0.00000000E+00  0.00000000E+00  0.00000000E+00
  0.00000000E+00  0.00000000E+00  0.00000000E+00  0.00000000E+00  0.00000000E+00
  0.00000000E+00  0.00000000E+00  0.00000000E+00  0.00000000E+00  0.00000000E+00
  0.00000000E+00  0.00000000E+00  0.00000000E+00  0.00000000E+00  0.00000000E+00
  0.00000000E+00  0.00000000E+00  0.00000000E+00  0.00000000E+00  0.00000000E+00
  0.00000000E+00  0.00000000E+00  0.00000000E+00  0.00000000E+00  0.00000000E+00
  0.00000000E+00  0.00000000E+00  0.00000000E+00  0.00000000E+00  0.00000000E+00
  0.00000000E+00  0.00000000E+00  0.00000000E+00  0.00000000E+00  0.00000000E+00
  0.00000000E+00  0.00000000E+00  0.00000000E+00
MO    2                     OCC NO =   1.00000000 ORB. ENERGY = -25.01529840
 -2.05802869E+00 -1.51650680E+00 -1.39574520E+00 -1.49817905E+00 -1.77570800E+00
 -2.24365826E+00 -2.85027539E+00 -3.53552102E+00 -3.72613762E+00 -2.90503357E+00
 -1.24820605E+00 -2.84725640E-01 -1.01117274E+00 -2.10648358E+00 -2.06240522E+00
  1.15102898E-01  2.47727579E+00  1.57817882E+00  2.04341711E-01 -9.02764811E-03
  1.93040355E-03 -2.23821195E-04  1.07251499E-04 -1.73837947E-05  0.00000000E+00
  0.00000000E+00  0.00000000E+00  0.00000000E+00  0.00000000E+00  0.00000000E+00
  0.00000000E+00  0.00000000E+00  0.00000000E+00  0.00000000E+00  0.00000000E+00
  0.00000000E+00  0.00000000E+00  0.00000000E+00  0.00000000E+00  0.00000000E+00
  0.00000000E+00  0.00000000E+00  0.00000000E+00  0.00000000E+00  0.00000000E+00
  0.00000000E+00  0.00000000E+00  0.00000000E+00  0.00000000E+00  0.00000000E+00
  0.00000000E+00  0.00000000E+00  0.00000000E+00  0.00000000E+00  0.00000000E+00
  0.00000000E+00  0.00000000E+00  0.00000000E+00  0.00000000E+00  0.00000000E+00
  0.00000000E+00  0.00000000E+00  0.00000000E+00  0.00000000E+00  0.00000000E+00
  0.00000000E+00  0.00000000E+00  0.00000000E+00  0.00000000E+00  0.00000000E+00
  0.00000000E+00  0.00000000E+00  0.00000000E+00  0.00000000E+00  0.00000000E+00
  0.00000000E+00  0.00000000E+00  0.00000000E+00  0.00000000E+00  0.00000000E+00
  0.00000000E+00  0.00000000E+00  0.00000000E+00  0.00000000E+00  0.00000000E+00
  0.00000000E+00  0.00000000E+00  0.00000000E+00  0.00000000E+00  0.00000000E+00
  0.00000000E+00  0.00000000E+00  0.00000000E+00  0.00000000E+00  0.00000000E+00
  0.00000000E+00  0.00000000E+00  0.00000000E+00  0.00000000E+00  0.00000000E+00
  0.00000000E+00  0.00000000E+00  0.00000000E+00  0.00000000E+00  0.00000000E+00
  0.00000000E+00  0.00000000E+00  0.00000000E+00  0.00000000E+00  0.00000000E+00
  0.00000000E+00  0.00000000E+00  0.00000000E+00  0.00000000E+00  0.00000000E+00
  0.00000000E+00  0.00000000E+00  0.00000000E+00  0.00000000E+00  0.00000000E+00
  0.00000000E+00  0.00000000E+00  0.00000000E+00  0.00000000E+00  0.00000000E+00
  0.00000000E+00  0.00000000E+00  0.00000000E+00  0.00000000E+00  0.00000000E+00
  0.00000000E+00  0.00000000E+00  0.00000000E+00  0.00000000E+00  0.00000000E+00
  0.00000000E+00  0.00000000E+00  0.00000000E+00  0.00000000E+00  0.00000000E+00
  0.00000000E+00  0.00000000E+00  0.00000000E+00  0.00000000E+00  0.00000000E+00
  0.00000000E+00  0.00000000E+00  0.00000000E+00  0.00000000E+00  0.00000000E+00
  0.00000000E+00  0.00000000E+00  0.00000000E+00  0.00000000E+00  0.00000000E+00
  0.00000000E+00  0.00000000E+00  0.00000000E+00  0.00000000E+00  0.00000000E+00
  0.00000000E+00  0.00000000E+00  0.00000000E+00  0.00000000E+00  0.00000000E+00
  0.00000000E+00  0.00000000E+00  0.00000000E+00  0.00000000E+00  0.00000000E+00
  0.00000000E+00  0.00000000E+00  0.00000000E+00  0.00000000E+00  0.00000000E+00
  0.00000000E+00  0.00000000E+00  0.00000000E+00  0.00000000E+00  0.00000000E+00
  0.00000000E+00  0.00000000E+00  0.00000000E+00
MO    3                     OCC NO =   1.00000000 ORB. ENERGY =  -2.94218130
  7.62571126E-01  5.61918452E-01  5.17172085E-01  5.55127384E-01  6.57961501E-01
  8.31353331E-01  1.05612605E+00  1.31003336E+00  1.38066343E+00  1.07641586E+00
  4.62503702E-01  1.20827936E-01  4.29107529E-01  8.93920422E-01  8.75215057E-01
 -6.25957248E-02 -1.40288880E+00 -1.38141051E+00  8.43097762E-02  6.42549453E-01
  2.21297002E-01  5.53734785E-03 -1.83753329E-03  2.61967833E-04  0.00000000E+00
  0.00000000E+00  0.00000000E+00  0.00000000E+00  0.00000000E+00  0.00000000E+00
  0.00000000E+00  0.00000000E+00  0.00000000E+00  0.00000000E+00  0.00000000E+00
  0.00000000E+00  0.00000000E+00  0.00000000E+00  0.00000000E+00  0.00000000E+00
  0.00000000E+00  0.00000000E+00  0.00000000E+00  0.00000000E+00  0.00000000E+00
  0.00000000E+00  0.00000000E+00  0.00000000E+00  0.00000000E+00  0.00000000E+00
  0.00000000E+00  0.00000000E+00  0.00000000E+00  0.00000000E+00  0.00000000E+00
  0.00000000E+00  0.00000000E+00  0.00000000E+00  0.00000000E+00  0.00000000E+00
  0.00000000E+00  0.00000000E+00  0.00000000E+00  0.00000000E+00  0.00000000E+00
  0.00000000E+00  0.00000000E+00  0.00000000E+00  0.00000000E+00  0.00000000E+00
  0.00000000E+00  0.00000000E+00  0.00000000E+00  0.00000000E+00  0.00000000E+00
  0.00000000E+00  0.00000000E+00  0.00000000E+00  0.00000000E+00  0.00000000E+00
  0.00000000E+00  0.00000000E+00  0.00000000E+00  0.00000000E+00  0.00000000E+00
  0.00000000E+00  0.00000000E+00  0.00000000E+00  0.00000000E+00  0.00000000E+00
  0.00000000E+00  0.00000000E+00  0.00000000E+00  0.00000000E+00  0.00000000E+00
  0.00000000E+00  0.00000000E+00  0.00000000E+00  0.00000000E+00  0.00000000E+00
  0.00000000E+00  0.00000000E+00  0.00000000E+00  0.00000000E+00  0.00000000E+00
  0.00000000E+00  0.00000000E+00  0.00000000E+00  0.00000000E+00  0.00000000E+00
  0.00000000E+00  0.00000000E+00  0.00000000E+00  0.00000000E+00  0.00000000E+00
  0.00000000E+00  0.00000000E+00  0.00000000E+00  0.00000000E+00  0.00000000E+00
  0.00000000E+00  0.00000000E+00  0.00000000E+00  0.00000000E+00  0.00000000E+00
  0.00000000E+00  0.00000000E+00  0.00000000E+00  0.00000000E+00  0.00000000E+00
  0.00000000E+00  0.00000000E+00  0.00000000E+00  0.00000000E+00  0.00000000E+00
  0.00000000E+00  0.00000000E+00  0.00000000E+00  0.00000000E+00  0.00000000E+00
  0.00000000E+00  0.00000000E+00  0.00000000E+00  0.00000000E+00  0.00000000E+00
  0.00000000E+00  0.00000000E+00  0.00000000E+00  0.00000000E+00  0.00000000E+00
  0.00000000E+00  0.00000000E+00  0.00000000E+00  0.00000000E+00  0.00000000E+00
  0.00000000E+00  0.00000000E+00  0.00000000E+00  0.00000000E+00  0.00000000E+00
  0.00000000E+00  0.00000000E+00  0.00000000E+00  0.00000000E+00  0.00000000E+00
  0.00000000E+00  0.00000000E+00  0.00000000E+00  0.00000000E+00  0.00000000E+00
  0.00000000E+00  0.00000000E+00  0.00000000E+00  0.00000000E+00  0.00000000E+00
  0.00000000E+00  0.00000000E+00  0.00000000E+00  0.00000000E+00  0.00000000E+00
  0.00000000E+00  0.00000000E+00  0.00000000E+00
MO    4                     OCC NO =   1.00000000 ORB. ENERGY =  -0.18192819
 -1.86110111E-01 -1.37139608E-01 -1.26218986E-01 -1.35482207E-01 -1.60579497E-01
 -2.02896826E-01 -2.57753972E-01 -3.19721593E-01 -3.36959290E-01 -2.62705823E-01
 -1.12876835E-01 -2.99615364E-02 -1.06405201E-01 -2.21664212E-01 -2.17025868E-01
  1.55451022E-02  3.61464120E-01  3.77245160E-01 -3.08956314E-02 -2.34870736E-01
 -1.36577220E-01  5.65252767E-02  4.95049216E-02  1.29731559E-02  0.00000000E+00
  0.00000000E+00  0.00000000E+00  0.00000000E+00  0.00000000E+00  0.00000000E+00
  0.00000000E+00  0.00000000E+00  0.00000000E+00  0.00000000E+00  0.00000000E+00
  0.00000000E+00  0.00000000E+00  0.00000000E+00  0.00000000E+00  0.00000000E+00
  0.00000000E+00  0.00000000E+00  0.00000000E+00  0.00000000E+00  0.00000000E+00
  0.00000000E+00  0.00000000E+00  0.00000000E+00  0.00000000E+00  0.00000000E+00
  0.00000000E+00  0.00000000E+00  0.00000000E+00  0.00000000E+00  0.00000000E+00
  0.00000000E+00  0.00000000E+00  0.00000000E+00  0.00000000E+00  0.00000000E+00
  0.00000000E+00  0.00000000E+00  0.00000000E+00  0.00000000E+00  0.00000000E+00
  0.00000000E+00  0.00000000E+00  0.00000000E+00  0.00000000E+00  0.00000000E+00
  0.00000000E+00  0.00000000E+00  0.00000000E+00  0.00000000E+00  0.00000000E+00
  0.00000000E+00  0.00000000E+00  0.00000000E+00  0.00000000E+00  0.00000000E+00
  0.00000000E+00  0.00000000E+00  0.00000000E+00  0.00000000E+00  0.00000000E+00
  0.00000000E+00  0.00000000E+00  0.00000000E+00  0.00000000E+00  0.00000000E+00
  0.00000000E+00  0.00000000E+00  0.00000000E+00  0.00000000E+00  0.00000000E+00
  0.00000000E+00  0.00000000E+00  0.00000000E+00  0.00000000E+00  0.00000000E+00
  0.00000000E+00  0.00000000E+00  0.00000000E+00  0.00000000E+00  0.00000000E+00
  0.00000000E+00  0.00000000E+00  0.00000000E+00  0.00000000E+00  0.00000000E+00
  0.00000000E+00  0.00000000E+00  0.00000000E+00  0.00000000E+00  0.00000000E+00
  0.00000000E+00  0.00000000E+00  0.00000000E+00  0.00000000E+00  0.00000000E+00
  0.00000000E+00  0.00000000E+00  0.00000000E+00  0.00000000E+00  0.00000000E+00
  0.00000000E+00  0.00000000E+00  0.00000000E+00  0.00000000E+00  0.00000000E+00
  0.00000000E+00  0.00000000E+00  0.00000000E+00  0.00000000E+00  0.00000000E+00
  0.00000000E+00  0.00000000E+00  0.00000000E+00  0.00000000E+00  0.00000000E+00
  0.00000000E+00  0.00000000E+00  0.00000000E+00  0.00000000E+00  0.00000000E+00
  0.00000000E+00  0.00000000E+00  0.00000000E+00  0.00000000E+00  0.00000000E+00
  0.00000000E+00  0.00000000E+00  0.00000000E+00  0.00000000E+00  0.00000000E+00
  0.00000000E+00  0.00000000E+00  0.00000000E+00  0.00000000E+00  0.00000000E+00
  0.00000000E+00  0.00000000E+00  0.00000000E+00  0.00000000E+00  0.00000000E+00
  0.00000000E+00  0.00000000E+00  0.00000000E+00  0.00000000E+00  0.00000000E+00
  0.00000000E+00  0.00000000E+00  0.00000000E+00  0.00000000E+00  0.00000000E+00
  0.00000000E+00  0.00000000E+00  0.00000000E+00  0.00000000E+00  0.00000000E+00
  0.00000000E+00  0.00000000E+00  0.00000000E+00
MO    5                     OCC NO =   1.00000000 ORB. ENERGY = -20.98661066
  0.00000000E+00  0.00000000E+00  0.00000000E+00  0.00000000E+00  0.00000000E+00
  0.00000000E+00  0.00000000E+00  0.00000000E+00  0.00000000E+00  0.00000000E+00
  0.00000000E+00  0.00000000E+00  0.00000000E+00  0.00000000E+00  0.00000000E+00
  0.00000000E+00  0.00000000E+00  0.00000000E+00  0.00000000E+00  0.00000000E+00
  0.00000000E+00  0.00000000E+00  0.00000000E+00  0.00000000E+00  2.28529720E+01
  0.00000000E+00  0.00000000E+00  1.95506206E+01  0.00000000E+00  0.00000000E+00
  2.43709834E+01  0.00000000E+00  0.00000000E+00  3.22905222E+01  0.00000000E+00
  0.00000000E+00  3.69855236E+01  0.00000000E+00  0.00000000E+00  3.81473375E+01
  0.00000000E+00  0.00000000E+00  3.21947870E+01  0.00000000E+00  0.00000000E+00
  1.88452467E+01  0.00000000E+00  0.00000000E+00  6.36639146E+00  0.00000000E+00
  0.00000000E+00  7.25359764E-01  0.00000000E+00  0.00000000E+00 -7.14510474E-02
  0.00000000E+00  0.00000000E+00 -1.06901743E-02  0.00000000E+00  0.00000000E+00
 -1.31751118E-02  0.00000000E+00  0.00000000E+00  1.79282182E-02  0.00000000E+00
  0.00000000E+00  1.46337148E-02  0.00000000E+00  0.00000000E+00  4.46405759E-03
  0.00000000E+00  0.00000000E+00 -2.11948259E-03  0.00000000E+00  0.00000000E+00
  6.31027469E-04  0.00000000E+00  0.00000000E+00 -1.27470075E-04  0.00000000E+00
  0.00000000E+00  1.50774061E-05  0.00000000E+00  0.00000000E+00  0.00000000E+00
  0.00000000E+00  0.00000000E+00  0.00000000E+00  0.00000000E+00  0.00000000E+00
  0.00000000E+00  0.00000000E+00  0.00000000E+00  0.00000000E+00  0.00000000E+00
  0.00000000E+00  0.00000000E+00  0.00000000E+00  0.00000000E+00  0.00000000E+00
  0.00000000E+00  0.00000000E+00  0.00000000E+00  0.00000000E+00  0.00000000E+00
  0.00000000E+00  0.00000000E+00  0.00000000E+00  0.00000000E+00  0.00000000E+00
  0.00000000E+00  0.00000000E+00  0.00000000E+00  0.00000000E+00  0.00000000E+00
  0.00000000E+00  0.00000000E+00  0.00000000E+00  0.00000000E+00  0.00000000E+00
  0.00000000E+00  0.00000000E+00  0.00000000E+00  0.00000000E+00  0.00000000E+00
  0.00000000E+00  0.00000000E+00  0.00000000E+00  0.00000000E+00  0.00000000E+00
  0.00000000E+00  0.00000000E+00  0.00000000E+00  0.00000000E+00  0.00000000E+00
  0.00000000E+00  0.00000000E+00  0.00000000E+00  0.00000000E+00  0.00000000E+00
  0.00000000E+00  0.00000000E+00  0.00000000E+00  0.00000000E+00  0.00000000E+00
  0.00000000E+00  0.00000000E+00  0.00000000E+00  0.00000000E+00  0.00000000E+00
  0.00000000E+00  0.00000000E+00  0.00000000E+00  0.00000000E+00  0.00000000E+00
  0.00000000E+00  0.00000000E+00  0.00000000E+00  0.00000000E+00  0.00000000E+00
  0.00000000E+00  0.00000000E+00  0.00000000E+00  0.00000000E+00  0.00000000E+00
  0.00000000E+00  0.00000000E+00  0.00000000E+00  0.00000000E+00  0.00000000E+00
  0.00000000E+00  0.00000000E+00  0.00000000E+00  0.00000000E+00  0.00000000E+00
  0.00000000E+00  0.00000000E+00  0.00000000E+00  0.00000000E+00  0.00000000E+00
  0.00000000E+00  0.00000000E+00  0.00000000E+00
MO    6                     OCC NO =   1.00000000 ORB. ENERGY = -20.98661066
  0.00000000E+00  0.00000000E+00  0.00000000E+00  0.00000000E+00  0.00000000E+00
  0.00000000E+00  0.00000000E+00  0.00000000E+00  0.00000000E+00  0.00000000E+00
  0.00000000E+00  0.00000000E+00  0.00000000E+00  0.00000000E+00  0.00000000E+00
  0.00000000E+00  0.00000000E+00  0.00000000E+00  0.00000000E+00  0.00000000E+00
  0.00000000E+00  0.00000000E+00  0.00000000E+00  0.00000000E+00  0.00000000E+00
  2.28529720E+01  0.00000000E+00  0.00000000E+00  1.95506206E+01  0.00000000E+00
  0.00000000E+00  2.43709834E+01  0.00000000E+00  0.00000000E+00  3.22905222E+01
  0.00000000E+00  0.00000000E+00  3.69855236E+01  0.00000000E+00  0.00000000E+00
  3.81473375E+01  0.00000000E+00  0.00000000E+00  3.21947870E+01  0.00000000E+00
  0.00000000E+00  1.88452467E+01  0.00000000E+00  0.00000000E+00  6.36639146E+00
  0.00000000E+00  0.00000000E+00  7.25359764E-01  0.00000000E+00  0.00000000E+00
 -7.14510474E-02  0.00000000E+00  0.00000000E+00 -1.06901743E-02  0.00000000E+00
  0.00000000E+00 -1.31751118E-02  0.00000000E+00  0.00000000E+00  1.79282182E-02
  0.00000000E+00  0.00000000E+00  1.46337148E-02  0.00000000E+00  0.00000000E+00
  4.46405759E-03  0.00000000E+00  0.00000000E+00 -2.11948259E-03  0.00000000E+00
  0.00000000E+00  6.31027469E-04  0.00000000E+00  0.00000000E+00 -1.27470075E-04
  0.00000000E+00  0.00000000E+00  1.50774061E-05  0.00000000E+00  0.00000000E+00
  0.00000000E+00  0.00000000E+00  0.00000000E+00  0.00000000E+00  0.00000000E+00
  0.00000000E+00  0.00000000E+00  0.00000000E+00  0.00000000E+00  0.00000000E+00
  0.00000000E+00  0.00000000E+00  0.00000000E+00  0.00000000E+00  0.00000000E+00
  0.00000000E+00  0.00000000E+00  0.00000000E+00  0.00000000E+00  0.00000000E+00
  0.00000000E+00  0.00000000E+00  0.00000000E+00  0.00000000E+00  0.00000000E+00
  0.00000000E+00  0.00000000E+00  0.00000000E+00  0.00000000E+00  0.00000000E+00
  0.00000000E+00  0.00000000E+00  0.00000000E+00  0.00000000E+00  0.00000000E+00
  0.00000000E+00  0.00000000E+00  0.00000000E+00  0.00000000E+00  0.00000000E+00
  0.00000000E+00  0.00000000E+00  0.00000000E+00  0.00000000E+00  0.00000000E+00
  0.00000000E+00  0.00000000E+00  0.00000000E+00  0.00000000E+00  0.00000000E+00
  0.00000000E+00  0.00000000E+00  0.00000000E+00  0.00000000E+00  0.00000000E+00
  0.00000000E+00  0.00000000E+00  0.00000000E+00  0.00000000E+00  0.00000000E+00
  0.00000000E+00  0.00000000E+00  0.00000000E+00  0.00000000E+00  0.00000000E+00
  0.00000000E+00  0.00000000E+00  0.00000000E+00  0.00000000E+00  0.00000000E+00
  0.00000000E+00  0.00000000E+00  0.00000000E+00  0.00000000E+00  0.00000000E+00
  0.00000000E+00  0.00000000E+00  0.00000000E+00  0.00000000E+00  0.00000000E+00
  0.00000000E+00  0.00000000E+00  0.00000000E+00  0.00000000E+00  0.00000000E+00
  0.00000000E+00  0.00000000E+00  0.00000000E+00  0.00000000E+00  0.00000000E+00
  0.00000000E+00  0.00000000E+00  0.00000000E+00  0.00000000E+00  0.00000000E+00
  0.00000000E+00  0.00000000E+00  0.00000000E+00
MO    7                     OCC NO =   1.00000000 ORB. ENERGY = -20.98661066
  0.00000000E+00  0.00000000E+00  0.00000000E+00  0.00000000E+00  0.00000000E+00
  0.00000000E+00  0.00000000E+00  0.00000000E+00  0.00000000E+00  0.00000000E+00
  0.00000000E+00  0.00000000E+00  0.00000000E+00  0.00000000E+00  0.00000000E+00
  0.00000000E+00  0.00000000E+00  0.00000000E+00  0.00000000E+00  0.00000000E+00
  0.00000000E+00  0.00000000E+00  0.00000000E+00  0.00000000E+00  0.00000000E+00
  0.00000000E+00  2.28529720E+01  0.00000000E+00  0.00000000E+00  1.95506206E+01
  0.00000000E+00  0.00000000E+00  2.43709834E+01  0.00000000E+00  0.00000000E+00
  3.22905222E+01  0.00000000E+00  0.00000000E+00  3.69855236E+01  0.00000000E+00
  0.00000000E+00  3.81473375E+01  0.00000000E+00  0.00000000E+00  3.21947870E+01
  0.00000000E+00  0.00000000E+00  1.88452467E+01  0.00000000E+00  0.00000000E+00
  6.36639146E+00  0.00000000E+00  0.00000000E+00  7.25359764E-01  0.00000000E+00
  0.00000000E+00 -7.14510474E-02  0.00000000E+00  0.00000000E+00 -1.06901743E-02
  0.00000000E+00  0.00000000E+00 -1.31751118E-02  0.00000000E+00  0.00000000E+00
  1.79282182E-02  0.00000000E+00  0.00000000E+00  1.46337148E-02  0.00000000E+00
  0.00000000E+00  4.46405759E-03  0.00000000E+00  0.00000000E+00 -2.11948259E-03
  0.00000000E+00  0.00000000E+00  6.31027469E-04  0.00000000E+00  0.00000000E+00
 -1.27470075E-04  0.00000000E+00  0.00000000E+00  1.50774061E-05  0.00000000E+00
  0.00000000E+00  0.00000000E+00  0.00000000E+00  0.00000000E+00  0.00000000E+00
  0.00000000E+00  0.00000000E+00  0.00000000E+00  0.00000000E+00  0.00000000E+00
  0.00000000E+00  0.00000000E+00  0.00000000E+00  0.00000000E+00  0.00000000E+00
  0.00000000E+00  0.00000000E+00  0.00000000E+00  0.00000000E+00  0.00000000E+00
  0.00000000E+00  0.00000000E+00  0.00000000E+00  0.00000000E+00  0.00000000E+00
  0.00000000E+00  0.00000000E+00  0.00000000E+00  0.00000000E+00  0.00000000E+00
  0.00000000E+00  0.00000000E+00  0.00000000E+00  0.00000000E+00  0.00000000E+00
  0.00000000E+00  0.00000000E+00  0.00000000E+00  0.00000000E+00  0.00000000E+00
  0.00000000E+00  0.00000000E+00  0.00000000E+00  0.00000000E+00  0.00000000E+00
  0.00000000E+00  0.00000000E+00  0.00000000E+00  0.00000000E+00  0.00000000E+00
  0.00000000E+00  0.00000000E+00  0.00000000E+00  0.00000000E+00  0.00000000E+00
  0.00000000E+00  0.00000000E+00  0.00000000E+00  0.00000000E+00  0.00000000E+00
  0.00000000E+00  0.00000000E+00  0.00000000E+00  0.00000000E+00  0.00000000E+00
  0.00000000E+00  0.00000000E+00  0.00000000E+00  0.00000000E+00  0.00000000E+00
  0.00000000E+00  0.00000000E+00  0.00000000E+00  0.00000000E+00  0.00000000E+00
  0.00000000E+00  0.00000000E+00  0.00000000E+00  0.00000000E+00  0.00000000E+00
  0.00000000E+00  0.00000000E+00  0.00000000E+00  0.00000000E+00  0.00000000E+00
  0.00000000E+00  0.00000000E+00  0.00000000E+00  0.00000000E+00  0.00000000E+00
  0.00000000E+00  0.00000000E+00  0.00000000E+00  0.00000000E+00  0.00000000E+00
  0.00000000E+00  0.00000000E+00  0.00000000E+00
MO    8                     OCC NO =   1.00000000 ORB. ENERGY =  -1.84430240
  0.00000000E+00  0.00000000E+00  0.00000000E+00  0.00000000E+00  0.00000000E+00
  0.00000000E+00  0.00000000E+00  0.00000000E+00  0.00000000E+00  0.00000000E+00
  0.00000000E+00  0.00000000E+00  0.00000000E+00  0.00000000E+00  0.00000000E+00
  0.00000000E+00  0.00000000E+00  0.00000000E+00  0.00000000E+00  0.00000000E+00
  0.00000000E+00  0.00000000E+00  0.00000000E+00  0.00000000E+00 -8.41477570E+00
  0.00000000E+00  0.00000000E+00 -7.19880492E+00  0.00000000E+00  0.00000000E+00
 -8.97372817E+00  0.00000000E+00  0.00000000E+00 -1.18898103E+01  0.00000000E+00
  0.00000000E+00 -1.36185738E+01  0.00000000E+00  0.00000000E+00 -1.40463695E+01
  0.00000000E+00  0.00000000E+00 -1.18545593E+01  0.00000000E+00  0.00000000E+00
 -6.93907661E+00  0.00000000E+00  0.00000000E+00 -2.34419209E+00  0.00000000E+00
  0.00000000E+00 -2.67087349E-01  0.00000000E+00  0.00000000E+00  1.84160677E-01
  0.00000000E+00  0.00000000E+00 -9.32925958E-01  0.00000000E+00  0.00000000E+00
 -1.14978517E+00  0.00000000E+00  0.00000000E+00  1.56458629E+00  0.00000000E+00
  0.00000000E+00  1.27707669E+00  0.00000000E+00  0.00000000E+00  3.89575988E-01
  0.00000000E+00  0.00000000E+00  3.35555216E-02  0.00000000E+00  0.00000000E+00
  2.51599173E-04  0.00000000E+00  0.00000000E+00  2.14424397E-05  0.00000000E+00
  0.00000000E+00  9.54774187E-07  0.00000000E+00  0.00000000E+00  0.00000000E+00
  0.00000000E+00  0.00000000E+00  0.00000000E+00  0.00000000E+00  0.00000000E+00
  0.00000000E+00  0.00000000E+00  0.00000000E+00  0.00000000E+00  0.00000000E+00
  0.00000000E+00  0.00000000E+00  0.00000000E+00  0.00000000E+00  0.00000000E+00
  0.00000000E+00  0.00000000E+00  0.00000000E+00  0.00000000E+00  0.00000000E+00
  0.00000000E+00  0.00000000E+00  0.00000000E+00  0.00000000E+00  0.00000000E+00
  0.00000000E+00  0.00000000E+00  0.00000000E+00  0.00000000E+00  0.00000000E+00
  0.00000000E+00  0.00000000E+00  0.00000000E+00  0.00000000E+00  0.00000000E+00
  0.00000000E+00  0.00000000E+00  0.00000000E+00  0.00000000E+00  0.00000000E+00
  0.00000000E+00  0.00000000E+00  0.00000000E+00  0.00000000E+00  0.00000000E+00
  0.00000000E+00  0.00000000E+00  0.00000000E+00  0.00000000E+00  0.00000000E+00
  0.00000000E+00  0.00000000E+00  0.00000000E+00  0.00000000E+00  0.00000000E+00
  0.00000000E+00  0.00000000E+00  0.00000000E+00  0.00000000E+00  0.00000000E+00
  0.00000000E+00  0.00000000E+00  0.00000000E+00  0.00000000E+00  0.00000000E+00
  0.00000000E+00  0.00000000E+00  0.00000000E+00  0.00000000E+00  0.00000000E+00
  0.00000000E+00  0.00000000E+00  0.00000000E+00  0.00000000E+00  0.00000000E+00
  0.00000000E+00  0.00000000E+00  0.00000000E+00  0.00000000E+00  0.00000000E+00
  0.00000000E+00  0.00000000E+00  0.00000000E+00  0.00000000E+00  0.00000000E+00
  0.00000000E+00  0.00000000E+00  0.00000000E+00  0.00000000E+00  0.00000000E+00
  0.00000000E+00  0.00000000E+00  0.00000000E+00  0.00000000E+00  0.00000000E+00
  0.00000000E+00  0.00000000E+00  0.00000000E+00
MO    9                     OCC NO =   1.00000000 ORB. ENERGY =  -1.84430240
  0.00000000E+00  0.00000000E+00  0.00000000E+00  0.00000000E+00  0.00000000E+00
  0.00000000E+00  0.00000000E+00  0.00000000E+00  0.00000000E+00  0.00000000E+00
  0.00000000E+00  0.00000000E+00  0.00000000E+00  0.00000000E+00  0.00000000E+00
  0.00000000E+00  0.00000000E+00  0.00000000E+00  0.00000000E+00  0.00000000E+00
  0.00000000E+00  0.00000000E+00  0.00000000E+00  0.00000000E+00  0.00000000E+00
 -8.41477570E+00  0.00000000E+00  0.00000000E+00 -7.19880492E+00  0.00000000E+00
  0.00000000E+00 -8.97372817E+00  0.00000000E+00  0.00000000E+00 -1.18898103E+01
  0.00000000E+00  0.00000000E+00 -1.36185738E+01  0.00000000E+00  0.00000000E+00
 -1.40463695E+01  0.00000000E+00  0.00000000E+00 -1.18545593E+01  0.00000000E+00
  0.00000000E+00 -6.93907661E+00  0.00000000E+00  0.00000000E+00 -2.34419209E+00
  0.00000000E+00  0.00000000E+00 -2.67087349E-01  0.00000000E+00  0.00000000E+00