atomref-proatoms Cu_q0_mult2_nist x2c-QZVPall
GAUSSIAN             29 MOL ORBITALS    199 PRIMITIVES        1 NUCLEI
  Cu   1    (CENTRE  1)   0.00000000  0.00000000  0.00000000  CHARGE = 29.0
CENTRE ASSIGNMENTS    1  1  1  1  1  1  1  1  1  1  1  1  1  1  1  1  1  1  1  1
CENTRE ASSIGNMENTS    1  1  1  1  1  1  1  1  1  1  1  1  1  1  1  1  1  1  1  1
CENTRE ASSIGNMENTS    1  1  1  1  1  1  1  1  1  1  1  1  1  1  1  1  1  1  1  1
CENTRE ASSIGNMENTS    1  1  1  1  1  1  1  1  1  1  1  1  1  1  1  1  1  1  1  1
CENTRE ASSIGNMENTS    1  1  1  1  1  1  1  1  1  1  1  1  1  1  1  1  1  1  1  1
CENTRE ASSIGNMENTS    1  1  1  1  1  1  1  1  1  1  1  1  1  1  1  1  1  1  1  1
CENTRE ASSIGNMENTS    1  1  1  1  1  1  1  1  1  1  1  1  1  1  1  1  1  1  1  1
CENTRE ASSIGNMENTS    1  1  1  1  1  1  1  1  1  1  1  1  1  1  1  1  1  1  1  1
CENTRE ASSIGNMENTS    1  1  1  1  1  1  1  1  1  1  1  1  1  1  1  1  1  1  1  1
CENTRE ASSIGNMENTS    1  1  1  1  1  1  1  1  1  1  1  1  1  1  1  1  1  1  1
TYPE ASSIGNMENTS      1  1  1  1  1  1  1  1  1  1  1  1  1  1  1  1  1  1  1  1
TYPE ASSIGNMENTS      1  1  1  1  2  3  4  2  3  4  2  3  4  2  3  4  2  3  4  2
TYPE ASSIGNMENTS      3  4  2  3  4  2  3  4  2  3  4  2  3  4  2  3  4  2  3  4
TYPE ASSIGNMENTS      2  3  4  2  3  4  2  3  4  2  3  4  2  3  4  2  3  4  2  3
TYPE ASSIGNMENTS      4  2  3  4  5  8  9  6 10  7  5  8  9  6 10  7  5  8  9  6
TYPE ASSIGNMENTS     10  7  5  8  9  6 10  7  5  8  9  6 10  7  5  8  9  6 10  7
TYPE ASSIGNMENTS      5  8  9  6 10  7  5  8  9  6 10  7  5  8  9  6 10  7  5  8
TYPE ASSIGNMENTS      9  6 10  7 11 14 15 17 20 18 12 16 19 13 11 14 15 17 20 18
TYPE ASSIGNMENTS     12 16 19 13 11 14 15 17 20 18 12 16 19 13 11 14 15 17 20 18
TYPE ASSIGNMENTS     12 16 19 13 21 24 25 30 33 31 26 34 35 28 22 27 32 29 23
EXPONENTS  1.3464884E+07 1.7381402E+06 3.5236943E+05 9.2094713E+04 2.8616809E+04
EXPONENTS  1.0072367E+04 3.8649447E+03 1.5155012E+03 6.5777015E+02 3.4174979E+02
EXPONENTS  1.8788692E+02 1.9619404E+03 5.8026275E+02 2.2484246E+02 9.9806653E+01
EXPONENTS  4.5374502E+01 2.1969602E+01 1.0398131E+01 4.5032745E+00 2.1142944E+00
EXPONENTS  8.9758563E-01 1.5286996E-01 7.4259293E-02 3.1733924E-02 5.0702828E+04
EXPONENTS  5.0702828E+04 5.0702828E+04 1.1979135E+04 1.1979135E+04 1.1979135E+04
EXPONENTS  3.2547420E+03 3.2547420E+03 3.2547420E+03 1.0169639E+03 1.0169639E+03
EXPONENTS  1.0169639E+03 3.6542000E+02 3.6542000E+02 3.6542000E+02 1.5159042E+02
EXPONENTS  1.5159042E+02 1.5159042E+02 6.5456524E+01 6.5456524E+01 6.5456524E+01
EXPONENTS  2.9825464E+01 2.9825464E+01 2.9825464E+01 1.4051693E+01 1.4051693E+01
EXPONENTS  1.4051693E+01 6.4576146E+00 6.4576146E+00 6.4576146E+00 1.9300000E+01
EXPONENTS  1.9300000E+01 1.9300000E+01 8.6709187E+01 8.6709187E+01 8.6709187E+01
EXPONENTS  3.0429038E+01 3.0429038E+01 3.0429038E+01 5.9868020E+00 5.9868020E+00
EXPONENTS  5.9868020E+00 2.7771736E+00 2.7771736E+00 2.7771736E+00 1.2320399E+00
EXPONENTS  1.2320399E+00 1.2320399E+00 4.9635139E-01 4.9635139E-01 4.9635139E-01
EXPONENTS  1.8700000E-01 1.8700000E-01 1.8700000E-01 7.6200000E-02 7.6200000E-02
EXPONENTS  7.6200000E-02 3.1000000E-02 3.1000000E-02 3.1000000E-02 2.8947528E+02
EXPONENTS  2.8947528E+02 2.8947528E+02 2.8947528E+02 2.8947528E+02 2.8947528E+02
EXPONENTS  8.1244179E+01 8.1244179E+01 8.1244179E+01 8.1244179E+01 8.1244179E+01
EXPONENTS  8.1244179E+01 2.9828957E+01 2.9828957E+01 2.9828957E+01 2.9828957E+01
EXPONENTS  2.9828957E+01 2.9828957E+01 1.2275476E+01 1.2275476E+01 1.2275476E+01
EXPONENTS  1.2275476E+01 1.2275476E+01 1.2275476E+01 5.3754785E+00 5.3754785E+00
EXPONENTS  5.3754785E+00 5.3754785E+00 5.3754785E+00 5.3754785E+00 2.3590093E+00
EXPONENTS  2.3590093E+00 2.3590093E+00 2.3590093E+00 2.3590093E+00 2.3590093E+00
EXPONENTS  1.0028765E+00 1.0028765E+00 1.0028765E+00 1.0028765E+00 1.0028765E+00
EXPONENTS  1.0028765E+00 4.0177008E-01 4.0177008E-01 4.0177008E-01 4.0177008E-01
EXPONENTS  4.0177008E-01 4.0177008E-01 1.4504052E-01 1.4504052E-01 1.4504052E-01
EXPONENTS  1.4504052E-01 1.4504052E-01 1.4504052E-01 7.1000000E-02 7.1000000E-02
EXPONENTS  7.1000000E-02 7.1000000E-02 7.1000000E-02 7.1000000E-02 6.9620000E+00
EXPONENTS  6.9620000E+00 6.9620000E+00 6.9620000E+00 6.9620000E+00 6.9620000E+00
EXPONENTS  6.9620000E+00 6.9620000E+00 6.9620000E+00 6.9620000E+00 2.2330000E+00
EXPONENTS  2.2330000E+00 2.2330000E+00 2.2330000E+00 2.2330000E+00 2.2330000E+00
EXPONENTS  2.2330000E+00 2.2330000E+00 2.2330000E+00 2.2330000E+00 7.0400000E-01
EXPONENTS  7.0400000E-01 7.0400000E-01 7.0400000E-01 7.0400000E-01 7.0400000E-01
EXPONENTS  7.0400000E-01 7.0400000E-01 7.0400000E-01 7.0400000E-01 2.4000000E-01
EXPONENTS  2.4000000E-01 2.4000000E-01 2.4000000E-01 2.4000000E-01 2.4000000E-01
EXPONENTS  2.4000000E-01 2.4000000E-01 2.4000000E-01 2.4000000E-01 1.7680000E+00
EXPONENTS  1.7680000E+00 1.7680000E+00 1.7680000E+00 1.7680000E+00 1.7680000E+00
EXPONENTS  1.7680000E+00 1.7680000E+00 1.7680000E+00 1.7680000E+00 1.7680000E+00
EXPONENTS  1.7680000E+00 1.7680000E+00 1.7680000E+00 1.7680000E+00
MO    1                     OCC NO =   1.00000000 ORB. ENERGY = -326.84317638
  1.16189428E+01  8.48133612E+00  7.39927650E+00  7.35952932E+00  8.09919615E+00
  9.59784691E+00  1.19670010E+01  1.47004436E+01  1.35055949E+01  8.91573365E+00
  5.26888004E+00  9.25521390E-01  3.09847177E+00  6.45247961E+00  6.41944423E+00
  1.14072117E+00 -4.84046675E-02  2.30467235E-02 -6.80819786E-03  1.99745822E-03
 -3.41150937E-04  3.31067382E-05 -1.62116040E-05  2.62482532E-06  0.00000000E+00
  0.00000000E+00  0.00000000E+00  0.00000000E+00  0.00000000E+00  0.00000000E+00
  0.00000000E+00  0.00000000E+00  0.00000000E+00  0.00000000E+00  0.00000000E+00
  0.00000000E+00  0.00000000E+00  0.00000000E+00  0.00000000E+00  0.00000000E+00
  0.00000000E+00  0.00000000E+00  0.00000000E+00  0.00000000E+00  0.00000000E+00
  0.00000000E+00  0.00000000E+00  0.00000000E+00  0.00000000E+00  0.00000000E+00
  0.00000000E+00  0.00000000E+00  0.00000000E+00  0.00000000E+00  0.00000000E+00
  0.00000000E+00  0.00000000E+00  0.00000000E+00  0.00000000E+00  0.00000000E+00
  0.00000000E+00  0.00000000E+00  0.00000000E+00  0.00000000E+00  0.00000000E+00
  0.00000000E+00  0.00000000E+00  0.00000000E+00  0.00000000E+00  0.00000000E+00
  0.00000000E+00  0.00000000E+00  0.00000000E+00  0.00000000E+00  0.00000000E+00
  0.00000000E+00  0.00000000E+00  0.00000000E+00  0.00000000E+00  0.00000000E+00
  0.00000000E+00  0.00000000E+00  0.00000000E+00  0.00000000E+00  0.00000000E+00
  0.00000000E+00  0.00000000E+00  0.00000000E+00  0.00000000E+00  0.00000000E+00
  0.00000000E+00  0.00000000E+00  0.00000000E+00  0.00000000E+00  0.00000000E+00
  0.00000000E+00  0.00000000E+00  0.00000000E+00  0.00000000E+00  0.00000000E+00
  0.00000000E+00  0.00000000E+00  0.00000000E+00  0.00000000E+00  0.00000000E+00
  0.00000000E+00  0.00000000E+00  0.00000000E+00  0.00000000E+00  0.00000000E+00
  0.00000000E+00  0.00000000E+00  0.00000000E+00  0.00000000E+00  0.00000000E+00
  0.00000000E+00  0.00000000E+00  0.00000000E+00  0.00000000E+00  0.00000000E+00
  0.00000000E+00  0.00000000E+00  0.00000000E+00  0.00000000E+00  0.00000000E+00
  0.00000000E+00  0.00000000E+00  0.00000000E+00  0.00000000E+00  0.00000000E+00
  0.00000000E+00  0.00000000E+00  0.00000000E+00  0.00000000E+00  0.00000000E+00
  0.00000000E+00  0.00000000E+00  0.00000000E+00  0.00000000E+00  0.00000000E+00
  0.00000000E+00  0.00000000E+00  0.00000000E+00  0.00000000E+00  0.00000000E+00
  0.00000000E+00  0.00000000E+00  0.00000000E+00  0.00000000E+00  0.00000000E+00
  0.00000000E+00  0.00000000E+00  0.00000000E+00  0.00000000E+00  0.00000000E+00
  0.00000000E+00  0.00000000E+00  0.00000000E+00  0.00000000E+00  0.00000000E+00
  0.00000000E+00  0.00000000E+00  0.00000000E+00  0.00000000E+00  0.00000000E+00
  0.00000000E+00  0.00000000E+00  0.00000000E+00  0.00000000E+00  0.00000000E+00
  0.00000000E+00  0.00000000E+00  0.00000000E+00  0.00000000E+00  0.00000000E+00
  0.00000000E+00  0.00000000E+00  0.00000000E+00  0.00000000E+00  0.00000000E+00
  0.00000000E+00  0.00000000E+00  0.00000000E+00  0.00000000E+00  0.00000000E+00
  0.00000000E+00  0.00000000E+00  0.00000000E+00  0.00000000E+00  0.00000000E+00
  0.00000000E+00  0.00000000E+00  0.00000000E+00  0.00000000E+00  0.00000000E+00
  0.00000000E+00  0.00000000E+00  0.00000000E+00  0.00000000E+00
MO    2                     OCC NO =   1.00000000 ORB. ENERGY = -39.67778243
 -3.69682091E+00 -2.69852268E+00 -2.35424174E+00 -2.34159530E+00 -2.57693649E+00
 -3.05376502E+00 -3.80756324E+00 -4.67726782E+00 -4.29710055E+00 -2.83673576E+00
 -1.67640948E+00 -6.20890913E-01 -2.07862615E+00 -4.32868002E+00 -4.30651807E+00
  8.70694057E-02  3.47165108E+00  2.23925468E+00  2.63982740E-01 -1.21329789E-02
  2.13006097E-03 -1.76846307E-04  8.66230994E-05 -1.40239146E-05  0.00000000E+00
  0.00000000E+00  0.00000000E+00  0.00000000E+00  0.00000000E+00  0.00000000E+00
  0.00000000E+00  0.00000000E+00  0.00000000E+00  0.00000000E+00  0.00000000E+00
  0.00000000E+00  0.00000000E+00  0.00000000E+00  0.00000000E+00  0.00000000E+00
  0.00000000E+00  0.00000000E+00  0.00000000E+00  0.00000000E+00  0.00000000E+00
  0.00000000E+00  0.00000000E+00  0.00000000E+00  0.00000000E+00  0.00000000E+00
  0.00000000E+00  0.00000000E+00  0.00000000E+00  0.00000000E+00  0.00000000E+00
  0.00000000E+00  0.00000000E+00  0.00000000E+00  0.00000000E+00  0.00000000E+00
  0.00000000E+00  0.00000000E+00  0.00000000E+00  0.00000000E+00  0.00000000E+00
  0.00000000E+00  0.00000000E+00  0.00000000E+00  0.00000000E+00  0.00000000E+00
  0.00000000E+00  0.00000000E+00  0.00000000E+00  0.00000000E+00  0.00000000E+00
  0.00000000E+00  0.00000000E+00  0.00000000E+00  0.00000000E+00  0.00000000E+00
  0.00000000E+00  0.00000000E+00  0.00000000E+00  0.00000000E+00  0.00000000E+00
  0.00000000E+00  0.00000000E+00  0.00000000E+00  0.00000000E+00  0.00000000E+00
  0.00000000E+00  0.00000000E+00  0.00000000E+00  0.00000000E+00  0.00000000E+00
  0.00000000E+00  0.00000000E+00  0.00000000E+00  0.00000000E+00  0.00000000E+00
  0.00000000E+00  0.00000000E+00  0.00000000E+00  0.00000000E+00  0.00000000E+00
  0.00000000E+00  0.00000000E+00  0.00000000E+00  0.00000000E+00  0.00000000E+00
  0.00000000E+00  0.00000000E+00  0.00000000E+00  0.00000000E+00  0.00000000E+00
  0.00000000E+00  0.00000000E+00  0.00000000E+00  0.00000000E+00  0.00000000E+00
  0.00000000E+00  0.00000000E+00  0.00000000E+00  0.00000000E+00  0.00000000E+00
  0.00000000E+00  0.00000000E+00  0.00000000E+00  0.00000000E+00  0.00000000E+00
  0.00000000E+00  0.00000000E+00  0.00000000E+00  0.00000000E+00  0.00000000E+00
  0.00000000E+00  0.00000000E+00  0.00000000E+00  0.00000000E+00  0.00000000E+00
  0.00000000E+00  0.00000000E+00  0.00000000E+00  0.00000000E+00  0.00000000E+00
  0.00000000E+00  0.00000000E+00  0.00000000E+00  0.00000000E+00  0.00000000E+00
  0.00000000E+00  0.00000000E+00  0.00000000E+00  0.00000000E+00  0.00000000E+00
  0.00000000E+00  0.00000000E+00  0.00000000E+00  0.00000000E+00  0.00000000E+00
  0.00000000E+00  0.00000000E+00  0.00000000E+00  0.00000000E+00  0.00000000E+00
  0.00000000E+00  0.00000000E+00  0.00000000E+00  0.00000000E+00  0.00000000E+00
  0.00000000E+00  0.00000000E+00  0.00000000E+00  0.00000000E+00  0.00000000E+00
  0.00000000E+00  0.00000000E+00  0.00000000E+00  0.00000000E+00  0.00000000E+00
  0.00000000E+00  0.00000000E+00  0.00000000E+00  0.00000000E+00  0.00000000E+00
  0.00000000E+00  0.00000000E+00  0.00000000E+00  0.00000000E+00  0.00000000E+00
  0.00000000E+00  0.00000000E+00  0.00000000E+00  0.00000000E+00  0.00000000E+00
  0.00000000E+00  0.00000000E+00  0.00000000E+00  0.00000000E+00
MO    3                     OCC NO =   1.00000000 ORB. ENERGY =  -4.45017045
  1.40442916E+00  1.02517380E+00  8.94380825E-01  8.89576420E-01  9.78982976E-01
  1.16013102E+00  1.44650037E+00  1.77690276E+00  1.63247651E+00  1.07768120E+00
  6.36871087E-01  2.59626260E-01  8.69179949E-01  1.81004260E+00  1.80077556E+00
 -4.39337612E-02 -2.09775311E+00 -1.98374051E+00  2.33676361E-01  9.05611533E-01
  2.72828989E-01  4.02123942E-03 -1.48499369E-03  2.15651093E-04  0.00000000E+00
  0.00000000E+00  0.00000000E+00  0.00000000E+00  0.00000000E+00  0.00000000E+00
  0.00000000E+00  0.00000000E+00  0.00000000E+00  0.00000000E+00  0.00000000E+00
  0.00000000E+00  0.00000000E+00  0.00000000E+00  0.00000000E+00  0.00000000E+00
  0.00000000E+00  0.00000000E+00  0.00000000E+00  0.00000000E+00  0.00000000E+00
  0.00000000E+00  0.00000000E+00  0.00000000E+00  0.00000000E+00  0.00000000E+00
  0.00000000E+00  0.00000000E+00  0.00000000E+00  0.00000000E+00  0.00000000E+00
  0.00000000E+00  0.00000000E+00  0.00000000E+00  0.00000000E+00  0.00000000E+00
  0.00000000E+00  0.00000000E+00  0.00000000E+00  0.00000000E+00  0.00000000E+00
  0.00000000E+00  0.00000000E+00  0.00000000E+00  0.00000000E+00  0.00000000E+00
  0.00000000E+00  0.00000000E+00  0.00000000E+00  0.00000000E+00  0.00000000E+00
  0.00000000E+00  0.00000000E+00  0.00000000E+00  0.00000000E+00  0.00000000E+00
  0.00000000E+00  0.00000000E+00  0.00000000E+00  0.00000000E+00  0.00000000E+00
  0.00000000E+00  0.00000000E+00  0.00000000E+00  0.00000000E+00  0.00000000E+00
  0.00000000E+00  0.00000000E+00  0.00000000E+00  0.00000000E+00  0.00000000E+00
  0.00000000E+00  0.00000000E+00  0.00000000E+00  0.00000000E+00  0.00000000E+00
  0.00000000E+00  0.00000000E+00  0.00000000E+00  0.00000000E+00  0.00000000E+00
  0.00000000E+00  0.00000000E+00  0.00000000E+00  0.00000000E+00  0.00000000E+00
  0.00000000E+00  0.00000000E+00  0.00000000E+00  0.00000000E+00  0.00000000E+00
  0.00000000E+00  0.00000000E+00  0.00000000E+00  0.00000000E+00  0.00000000E+00
  0.00000000E+00  0.00000000E+00  0.00000000E+00  0.00000000E+00  0.00000000E+00
  0.00000000E+00  0.00000000E+00  0.00000000E+00  0.00000000E+00  0.00000000E+00
  0.00000000E+00  0.00000000E+00  0.00000000E+00  0.00000000E+00  0.00000000E+00
  0.00000000E+00  0.00000000E+00  0.00000000E+00  0.00000000E+00  0.00000000E+00
  0.00000000E+00  0.00000000E+00  0.00000000E+00  0.00000000E+00  0.00000000E+00
  0.00000000E+00  0.00000000E+00  0.00000000E+00  0.00000000E+00  0.00000000E+00
  0.00000000E+00  0.00000000E+00  0.00000000E+00  0.00000000E+00  0.00000000E+00
  0.00000000E+00  0.00000000E+00  0.00000000E+00  0.00000000E+00  0.00000000E+00
  0.00000000E+00  0.00000000E+00  0.00000000E+00  0.00000000E+00  0.00000000E+00
  0.00000000E+00  0.00000000E+00  0.00000000E+00  0.00000000E+00  0.00000000E+00
  0.00000000E+00  0.00000000E+00  0.00000000E+00  0.00000000E+00  0.00000000E+00
  0.00000000E+00  0.00000000E+00  0.00000000E+00  0.00000000E+00  0.00000000E+00
  0.00000000E+00  0.00000000E+00  0.00000000E+00  0.00000000E+00  0.00000000E+00
  0.00000000E+00  0.00000000E+00  0.00000000E+00  0.00000000E+00  0.00000000E+00
  0.00000000E+00  0.00000000E+00  0.00000000E+00  0.00000000E+00  0.00000000E+00
  0.00000000E+00  0.00000000E+00  0.00000000E+00  0.00000000E+00
MO    4                     OCC NO =   1.00000000 ORB. ENERGY =  -0.20350848
 -2.94403913E-01 -2.14902387E-01 -1.87484868E-01 -1.86477743E-01 -2.05219621E-01
 -2.43192839E-01 -3.03223105E-01 -3.72483812E-01 -3.42208412E-01 -2.25909269E-01
 -1.33504306E-01 -5.49427438E-02 -1.83937986E-01 -3.83045641E-01 -3.81084526E-01
  6.07636543E-03  4.71200357E-01  4.54957139E-01 -5.69782241E-02 -2.94292285E-01
 -1.40358267E-01  7.73435645E-02  4.74425292E-02  1.24051811E-02  0.00000000E+00
  0.00000000E+00  0.00000000E+00  0.00000000E+00  0.00000000E+00  0.00000000E+00
  0.00000000E+00  0.00000000E+00  0.00000000E+00  0.00000000E+00  0.00000000E+00
  0.00000000E+00  0.00000000E+00  0.00000000E+00  0.00000000E+00  0.00000000E+00
  0.00000000E+00  0.00000000E+00  0.00000000E+00  0.00000000E+00  0.00000000E+00
  0.00000000E+00  0.00000000E+00  0.00000000E+00  0.00000000E+00  0.00000000E+00
  0.00000000E+00  0.00000000E+00  0.00000000E+00  0.00000000E+00  0.00000000E+00
  0.00000000E+00  0.00000000E+00  0.00000000E+00  0.00000000E+00  0.00000000E+00
  0.00000000E+00  0.00000000E+00  0.00000000E+00  0.00000000E+00  0.00000000E+00
  0.00000000E+00  0.00000000E+00  0.00000000E+00  0.00000000E+00  0.00000000E+00
  0.00000000E+00  0.00000000E+00  0.00000000E+00  0.00000000E+00  0.00000000E+00
  0.00000000E+00  0.00000000E+00  0.00000000E+00  0.00000000E+00  0.00000000E+00
  0.00000000E+00  0.00000000E+00  0.00000000E+00  0.00000000E+00  0.00000000E+00
  0.00000000E+00  0.00000000E+00  0.00000000E+00  0.00000000E+00  0.00000000E+00
  0.00000000E+00  0.00000000E+00  0.00000000E+00  0.00000000E+00  0.00000000E+00
  0.00000000E+00  0.00000000E+00  0.00000000E+00  0.00000000E+00  0.00000000E+00
  0.00000000E+00  0.00000000E+00  0.00000000E+00  0.00000000E+00  0.00000000E+00
  0.00000000E+00  0.00000000E+00  0.00000000E+00  0.00000000E+00  0.00000000E+00
  0.00000000E+00  0.00000000E+00  0.00000000E+00  0.00000000E+00  0.00000000E+00
  0.00000000E+00  0.00000000E+00  0.00000000E+00  0.00000000E+00  0.00000000E+00
  0.00000000E+00  0.00000000E+00  0.00000000E+00  0.00000000E+00  0.00000000E+00
  0.00000000E+00  0.00000000E+00  0.00000000E+00  0.00000000E+00  0.00000000E+00
  0.00000000E+00  0.00000000E+00  0.00000000E+00  0.00000000E+00  0.00000000E+00
  0.00000000E+00  0.00000000E+00  0.00000000E+00  0.00000000E+00  0.00000000E+00
  0.00000000E+00  0.00000000E+00  0.00000000E+00  0.00000000E+00  0.00000000E+00
  0.00000000E+00  0.00000000E+00  0.00000000E+00  0.00000000E+00  0.00000000E+00
  0.00000000E+00  0.00000000E+00  0.00000000E+00  0.00000000E+00  0.00000000E+00
  0.00000000E+00  0.00000000E+00  0.00000000E+00  0.00000000E+00  0.00000000E+00
  0.00000000E+00  0.00000000E+00  0.00000000E+00  0.00000000E+00  0.00000000E+00
  0.00000000E+00  0.00000000E+00  0.00000000E+00  0.00000000E+00  0.00000000E+00
  0.00000000E+00  0.00000000E+00  0.00000000E+00  0.00000000E+00  0.00000000E+00
  0.00000000E+00  0.00000000E+00  0.00000000E+00  0.00000000E+00  0.00000000E+00
  0.00000000E+00  0.00000000E+00  0.00000000E+00  0.00000000E+00  0.00000000E+00
  0.00000000E+00  0.00000000E+00  0.00000000E+00  0.00000000E+00  0.00000000E+00
  0.00000000E+00  0.00000000E+00  0.00000000E+00  0.00000000E+00  0.00000000E+00
  0.00000000E+00  0.00000000E+00  0.00000000E+00  0.00000000E+00
MO    5                     OCC NO =   1.00000000 ORB. ENERGY = -34.20623165
  0.00000000E+00  0.00000000E+00  0.00000000E+00  0.00000000E+00  0.00000000E+00
  0.00000000E+00  0.00000000E+00  0.00000000E+00  0.00000000E+00  0.00000000E+00
  0.00000000E+00  0.00000000E+00  0.00000000E+00  0.00000000E+00  0.00000000E+00
  0.00000000E+00  0.00000000E+00  0.00000000E+00  0.00000000E+00  0.00000000E+00
  0.00000000E+00  0.00000000E+00  0.00000000E+00  0.00000000E+00  5.29857502E+01
  0.00000000E+00  0.00000000E+00  3.88247907E+01  0.00000000E+00  0.00000000E+00
  4.28825257E+01  0.00000000E+00  0.00000000E+00  5.46038729E+01  0.00000000E+00
  0.00000000E+00  6.16152595E+01  0.00000000E+00  0.00000000E+00  6.74751738E+01
  0.00000000E+00  0.00000000E+00  6.07254394E+01  0.00000000E+00  0.00000000E+00
  3.74062569E+01  0.00000000E+00  0.00000000E+00  1.34667106E+01  0.00000000E+00
  0.00000000E+00  1.63894458E+00  0.00000000E+00  0.00000000E+00 -1.04713614E-01
  0.00000000E+00  0.00000000E+00 -1.53508727E-02  0.00000000E+00  0.00000000E+00
 -2.07348697E-02  0.00000000E+00  0.00000000E+00  2.66105188E-02  0.00000000E+00
  0.00000000E+00  2.15436410E-02  0.00000000E+00  0.00000000E+00  6.53532642E-03
  0.00000000E+00  0.00000000E+00 -2.08907980E-03  0.00000000E+00  0.00000000E+00
  4.40332177E-04  0.00000000E+00  0.00000000E+00 -8.13901677E-05  0.00000000E+00
  0.00000000E+00  8.85063541E-06  0.00000000E+00  0.00000000E+00  0.00000000E+00
  0.00000000E+00  0.00000000E+00  0.00000000E+00  0.00000000E+00  0.00000000E+00
  0.00000000E+00  0.00000000E+00  0.00000000E+00  0.00000000E+00  0.00000000E+00
  0.00000000E+00  0.00000000E+00  0.00000000E+00  0.00000000E+00  0.00000000E+00
  0.00000000E+00  0.00000000E+00  0.00000000E+00  0.00000000E+00  0.00000000E+00
  0.00000000E+00  0.00000000E+00  0.00000000E+00  0.00000000E+00  0.00000000E+00
  0.00000000E+00  0.00000000E+00  0.00000000E+00  0.00000000E+00  0.00000000E+00
  0.00000000E+00  0.00000000E+00  0.00000000E+00  0.00000000E+00  0.00000000E+00
  0.00000000E+00  0.00000000E+00  0.00000000E+00  0.00000000E+00  0.00000000E+00
  0.00000000E+00  0.00000000E+00  0.00000000E+00  0.00000000E+00  0.00000000E+00
  0.00000000E+00  0.00000000E+00  0.00000000E+00  0.00000000E+00  0.00000000E+00
  0.00000000E+00  0.00000000E+00  0.00000000E+00  0.00000000E+00  0.00000000E+00
  0.00000000E+00  0.00000000E+00  0.00000000E+00  0.00000000E+00  0.00000000E+00
  0.00000000E+00  0.00000000E+00  0.00000000E+00  0.00000000E+00  0.00000000E+00
  0.00000000E+00  0.00000000E+00  0.00000000E+00  0.00000000E+00  0.00000000E+00
  0.00000000E+00  0.00000000E+00  0.00000000E+00  0.00000000E+00  0.00000000E+00
  0.00000000E+00  0.00000000E+00  0.00000000E+00  0.00000000E+00  0.00000000E+00
  0.00000000E+00  0.00000000E+00  0.00000000E+00  0.00000000E+00  0.00000000E+00
  0.00000000E+00  0.00000000E+00  0.00000000E+00  0.00000000E+00  0.00000000E+00
  0.00000000E+00  0.00000000E+00  0.00000000E+00  0.00000000E+00  0.00000000E+00
  0.00000000E+00  0.00000000E+00  0.00000000E+00  0.00000000E+00  0.00000000E+00
  0.00000000E+00  0.00000000E+00  0.00000000E+00  0.00000000E+00  0.00000000E+00
  0.00000000E+00  0.00000000E+00  0.00000000E+00  0.00000000E+00  0.00000000E+00
  0.00000000E+00  0.00000000E+00  0.00000000E+00  0.00000000E+00
MO    6                     OCC NO =   1.00000000 ORB. ENERGY = -34.20623165
  0.00000000E+00  0.00000000E+00  0.00000000E+00  0.00000000E+00  0.00000000E+00
  0.00000000E+00  0.00000000E+00  0.00000000E+00  0.00000000E+00  0.00000000E+00
  0.00000000E+00  0.00000000E+00  0.00000000E+00  0.00000000E+00  0.00000000E+00
  0.00000000E+00  0.00000000E+00  0.00000000E+00  0.00000000E+00  0.00000000E+00
  0.00000000E+00  0.00000000E+00  0.00000000E+00  0.00000000E+00  0.00000000E+00
  5.29857502E+01  0.00000000E+00  0.00000000E+00  3.88247907E+01  0.00000000E+00
  0.00000000E+00  4.28825257E+01  0.00000000E+00  0.00000000E+00  5.46038729E+01
  0.00000000E+00  0.00000000E+00  6.16152595E+01  0.00000000E+00  0.00000000E+00
  6.74751738E+01  0.00000000E+00  0.00000000E+00  6.07254394E+01  0.00000000E+00
  0.00000000E+00  3.74062569E+01  0.00000000E+00  0.00000000E+00  1.34667106E+01
  0.00000000E+00  0.00000000E+00  1.63894458E+00  0.00000000E+00  0.00000000E+00
 -1.04713614E-01  0.00000000E+00  0.00000000E+00 -1.53508727E-02  0.00000000E+00
  0.00000000E+00 -2.07348697E-02  0.00000000E+00  0.00000000E+00  2.66105188E-02
  0.00000000E+00  0.00000000E+00  2.15436410E-02  0.00000000E+00  0.00000000E+00
  6.53532642E-03  0.00000000E+00  0.00000000E+00 -2.08907980E-03  0.00000000E+00
  0.00000000E+00  4.40332177E-04  0.00000000E+00  0.00000000E+00 -8.13901677E-05
  0.00000000E+00  0.00000000E+00  8.85063541E-06  0.00000000E+00  0.00000000E+00
  0.00000000E+00  0.00000000E+00  0.00000000E+00  0.00000000E+00  0.00000000E+00
  0.00000000E+00  0.00000000E+00  0.00000000E+00  0.00000000E+00  0.00000000E+00
  0.00000000E+00  0.00000000E+00  0.00000000E+00  0.00000000E+00  0.00000000E+00
  0.00000000E+00  0.00000000E+00  0.00000000E+00  0.00000000E+00  0.00000000E+00
  0.00000000E+00  0.00000000E+00  0.00000000E+00  0.00000000E+00  0.00000000E+00
  0.00000000E+00  0.00000000E+00  0.00000000E+00  0.00000000E+00  0.00000000E+00
  0.00000000E+00  0.00000000E+00  0.00000000E+00  0.00000000E+00  0.00000000E+00
  0.00000000E+00  0.00000000E+00  0.00000000E+00  0.00000000E+00  0.00000000E+00
  0.00000000E+00  0.00000000E+00  0.00000000E+00  0.00000000E+00  0.00000000E+00
  0.00000000E+00  0.00000000E+00  0.00000000E+00  0.00000000E+00  0.00000000E+00
  0.00000000E+00  0.00000000E+00  0.00000000E+00  0.00000000E+00  0.00000000E+00
  0.00000000E+00  0.00000000E+00  0.00000000E+00  0.00000000E+00  0.00000000E+00
  0.00000000E+00  0.00000000E+00  0.00000000E+00  0.00000000E+00  0.00000000E+00
  0.00000000E+00  0.00000000E+00  0.00000000E+00  0.00000000E+00  0.00000000E+00
  0.00000000E+00  0.00000000E+00  0.00000000E+00  0.00000000E+00  0.00000000E+00
  0.00000000E+00  0.00000000E+00  0.00000000E+00  0.00000000E+00  0.00000000E+00
  0.00000000E+00  0.00000000E+00  0.00000000E+00  0.00000000E+00  0.00000000E+00
  0.00000000E+00  0.00000000E+00  0.00000000E+00  0.00000000E+00  0.00000000E+00
  0.00000000E+00  0.00000000E+00  0.00000000E+00  0.00000000E+00  0.00000000E+00
  0.00000000E+00  0.00000000E+00  0.00000000E+00  0.00000000E+00  0.00000000E+00
  0.00000000E+00  0.00000000E+00  0.00000000E+00  0.00000000E+00  0.00000000E+00
  0.00000000E+00  0.00000000E+00  0.00000000E+00  0.00000000E+00  0.00000000E+00
  0.00000000E+00  0.00000000E+00  0.00000000E+00  0.00000000E+00
MO    7                     OCC NO =   1.00000000 ORB. ENERGY = -34.20623165
  0.00000000E+00  0.00000000E+00  0.00000000E+00  0.00000000E+00  0.00000000E+00
  0.00000000E+00  0.00000000E+00  0.00000000E+00  0.00000000E+00  0.00000000E+00
  0.00000000E+00  0.00000000E+00  0.00000000E+00  0.00000000E+00  0.00000000E+00
  0.00000000E+00  0.00000000E+00  0.00000000E+00  0.00000000E+00  0.00000000E+00
  0.00000000E+00  0.00000000E+00  0.00000000E+00  0.00000000E+00  0.00000000E+00
  0.00000000E+00  5.29857502E+01  0.00000000E+00  0.00000000E+00  3.88247907E+01
  0.00000000E+00  0.00000000E+00  4.28825257E+01  0.00000000E+00  0.00000000E+00
  5.46038729E+01  0.00000000E+00  0.00000000E+00  6.16152595E+01  0.00000000E+00
  0.00000000E+00  6.74751738E+01  0.00000000E+00  0.00000000E+00  6.07254394E+01
  0.00000000E+00  0.00000000E+00  3.74062569E+01  0.00000000E+00  0.00000000E+00
  1.34667106E+01  0.00000000E+00  0.00000000E+00  1.63894458E+00  0.00000000E+00
  0.00000000E+00 -1.04713614E-01  0.00000000E+00  0.00000000E+00 -1.53508727E-02
  0.00000000E+00  0.00000000E+00 -2.07348697E-02  0.00000000E+00  0.00000000E+00
  2.66105188E-02  0.00000000E+00  0.00000000E+00  2.15436410E-02  0.00000000E+00
  0.00000000E+00  6.53532642E-03  0.00000000E+00  0.00000000E+00 -2.08907980E-03
  0.00000000E+00  0.00000000E+00  4.40332177E-04  0.00000000E+00  0.00000000E+00
 -8.13901677E-05  0.00000000E+00  0.00000000E+00  8.85063541E-06  0.00000000E+00
  0.00000000E+00  0.00000000E+00  0.00000000E+00  0.00000000E+00  0.00000000E+00
  0.00000000E+00  0.00000000E+00  0.00000000E+00  0.00000000E+00  0.00000000E+00
  0.00000000E+00  0.00000000E+00  0.00000000E+00  0.00000000E+00  0.00000000E+00
  0.00000000E+00  0.00000000E+00  0.00000000E+00  0.00000000E+00  0.00000000E+00
  0.00000000E+00  0.00000000E+00  0.00000000E+00  0.00000000E+00  0.00000000E+00
  0.00000000E+00  0.00000000E+00  0.00000000E+00  0.00000000E+00  0.00000000E+00
  0.00000000E+00  0.00000000E+00  0.00000000E+00  0.00000000E+00  0.00000000E+00
  0.00000000E+00  0.00000000E+00  0.00000000E+00  0.00000000E+00  0.00000000E+00
  0.00000000E+00  0.00000000E+00  0.00000000E+00  0.00000000E+00  0.00000000E+00
  0.00000000E+00  0.00000000E+00  0.00000000E+00  0.00000000E+00  0.00000000E+00
  0.00000000E+00  0.00000000E+00  0.00000000E+00  0.00000000E+00  0.00000000E+00
  0.00000000E+00  0.00000000E+00  0.00000000E+00  0.00000000E+00  0.00000000E+00
  0.00000000E+00  0.00000000E+00  0.00000000E+00  0.00000000E+00  0.00000000E+00
  0.00000000E+00  0.00000000E+00  0.00000000E+00  0.00000000E+00  0.00000000E+00
  0.00000000E+00  0.00000000E+00  0.00000000E+00  0.00000000E+00  0.00000000E+00
  0.00000000E+00  0.00000000E+00  0.00000000E+00  0.00000000E+00  0.00000000E+00
  0.00000000E+00  0.00000000E+00  0.00000000E+00  0.00000000E+00  0.00000000E+00
  0.00000000E+00  0.00000000E+00  0.00000000E+00  0.00000000E+00  0.00000000E+00
  0.00000000E+00  0.00000000E+00  0.00000000E+00  0.00000000E+00  0.00000000E+00
  0.00000000E+00  0.00000000E+00  0.00000000E+00  0.00000000E+00  0.00000000E+00
  0.00000000E+00  0.00000000E+00  0.00000000E+00  0.00000000E+00  0.00000000E+00
  0.00000000E+00  0.00000000E+00  0.00000000E+00  0.00000000E+00  0.00000000E+00
  0.00000000E+00  0.00000000E+00  0.00000000E+00  0.00000000E+00
MO    8                     OCC NO =   1.00000000 ORB. ENERGY =  -2.82805537
  0.00000000E+00  0.00000000E+00  0.00000000E+00  0.00000000E+00  0.00000000E+00
  0.00000000E+00  0.00000000E+00  0.00000000E+00  0.00000000E+00  0.00000000E+00
  0.00000000E+00  0.00000000E+00  0.00000000E+00  0.00000000E+00  0.00000000E+00
  0.00000000E+00  0.00000000E+00  0.00000000E+00  0.00000000E+00  0.00000000E+00
  0.00000000E+00  0.00000000E+00  0.00000000E+00  0.00000000E+00 -2.02778909E+01
  0.00000000E+00  0.00000000E+00 -1.48584264E+01  0.00000000E+00  0.00000000E+00
 -1.64113403E+01  0.00000000E+00  0.00000000E+00 -2.08971539E+01  0.00000000E+00
  0.00000000E+00 -2.35804438E+01  0.00000000E+00  0.00000000E+00 -2.58230601E+01
  0.00000000E+00  0.00000000E+00 -2.32399056E+01  0.00000000E+00  0.00000000E+00
 -1.43155470E+01  0.00000000E+00  0.00000000E+00 -5.15377222E+00  0.00000000E+00
  0.00000000E+00 -6.27231646E-01  0.00000000E+00  0.00000000E+00  2.92862265E-01
  0.00000000E+00  0.00000000E+00 -1.74640460E+00  0.00000000E+00  0.00000000E+00
 -2.35891943E+00  0.00000000E+00  0.00000000E+00  3.02736747E+00  0.00000000E+00
  0.00000000E+00  2.45092997E+00  0.00000000E+00  0.00000000E+00  7.43496762E-01
  0.00000000E+00  0.00000000E+00  5.67212000E-02  0.00000000E+00  0.00000000E+00
  6.20883077E-04  0.00000000E+00  0.00000000E+00 -5.20256363E-05  0.00000000E+00
  0.00000000E+00  8.06449111E-06  0.00000000E+00  0.00000000E+00  0.00000000E+00
  0.00000000E+00  0.00000000E+00  0.00000000E+00  0.00000000E+00  0.00000000E+00
  0.00000000E+00  0.00000000E+00  0.00000000E+00  0.00000000E+00  0.00000000E+00
  0.00000000E+00  0.00000000E+00  0.00000000E+00  0.00000000E+00  0.00000000E+00
  0.00000000E+00  0.00000000E+00  0.00000000E+00  0.00000000E+00  0.00000000E+00
  0.00000000E+00  0.00000000E+00  0.00000000E+00  0.00000000E+00  0.00000000E+00