atomref-proatoms Dy_q0_mult5_nist x2c-QZVPall
GAUSSIAN             70 MOL ORBITALS    437 PRIMITIVES        1 NUCLEI
  Dy   1    (CENTRE  1)   0.00000000  0.00000000  0.00000000  CHARGE = 66.0
CENTRE ASSIGNMENTS    1  1  1  1  1  1  1  1  1  1  1  1  1  1  1  1  1  1  1  1
CENTRE ASSIGNMENTS    1  1  1  1  1  1  1  1  1  1  1  1  1  1  1  1  1  1  1  1
CENTRE ASSIGNMENTS    1  1  1  1  1  1  1  1  1  1  1  1  1  1  1  1  1  1  1  1
CENTRE ASSIGNMENTS    1  1  1  1  1  1  1  1  1  1  1  1  1  1  1  1  1  1  1  1
CENTRE ASSIGNMENTS    1  1  1  1  1  1  1  1  1  1  1  1  1  1  1  1  1  1  1  1
CENTRE ASSIGNMENTS    1  1  1  1  1  1  1  1  1  1  1  1  1  1  1  1  1  1  1  1
CENTRE ASSIGNMENTS    1  1  1  1  1  1  1  1  1  1  1  1  1  1  1  1  1  1  1  1
CENTRE ASSIGNMENTS    1  1  1  1  1  1  1  1  1  1  1  1  1  1  1  1  1  1  1  1
CENTRE ASSIGNMENTS    1  1  1  1  1  1  1  1  1  1  1  1  1  1  1  1  1  1  1  1
CENTRE ASSIGNMENTS    1  1  1  1  1  1  1  1  1  1  1  1  1  1  1  1  1  1  1  1
CENTRE ASSIGNMENTS    1  1  1  1  1  1  1  1  1  1  1  1  1  1  1  1  1  1  1  1
CENTRE ASSIGNMENTS    1  1  1  1  1  1  1  1  1  1  1  1  1  1  1  1  1  1  1  1
CENTRE ASSIGNMENTS    1  1  1  1  1  1  1  1  1  1  1  1  1  1  1  1  1  1  1  1
CENTRE ASSIGNMENTS    1  1  1  1  1  1  1  1  1  1  1  1  1  1  1  1  1  1  1  1
CENTRE ASSIGNMENTS    1  1  1  1  1  1  1  1  1  1  1  1  1  1  1  1  1  1  1  1
CENTRE ASSIGNMENTS    1  1  1  1  1  1  1  1  1  1  1  1  1  1  1  1  1  1  1  1
CENTRE ASSIGNMENTS    1  1  1  1  1  1  1  1  1  1  1  1  1  1  1  1  1  1  1  1
CENTRE ASSIGNMENTS    1  1  1  1  1  1  1  1  1  1  1  1  1  1  1  1  1  1  1  1
CENTRE ASSIGNMENTS    1  1  1  1  1  1  1  1  1  1  1  1  1  1  1  1  1  1  1  1
CENTRE ASSIGNMENTS    1  1  1  1  1  1  1  1  1  1  1  1  1  1  1  1  1  1  1  1
CENTRE ASSIGNMENTS    1  1  1  1  1  1  1  1  1  1  1  1  1  1  1  1  1  1  1  1
CENTRE ASSIGNMENTS    1  1  1  1  1  1  1  1  1  1  1  1  1  1  1  1  1
TYPE ASSIGNMENTS      1  1  1  1  1  1  1  1  1  1  1  1  1  1  1  1  1  1  1  1
TYPE ASSIGNMENTS      1  1  1  1  1  1  1  1  1  1  2  3  4  2  3  4  2  3  4  2
TYPE ASSIGNMENTS      3  4  2  3  4  2  3  4  2  3  4  2  3  4  2  3  4  2  3  4
TYPE ASSIGNMENTS      2  3  4  2  3  4  2  3  4  2  3  4  2  3  4  2  3  4  2  3
TYPE ASSIGNMENTS      4  2  3  4  2  3  4  2  3  4  2  3  4  2  3  4  2  3  4  2
TYPE ASSIGNMENTS      3  4  2  3  4  2  3  4  2  3  4  2  3  4  2  3  4  2  3  4
TYPE ASSIGNMENTS      2  3  4  2  3  4  2  3  4  2  3  4  5  8  9  6 10  7  5  8
TYPE ASSIGNMENTS      9  6 10  7  5  8  9  6 10  7  5  8  9  6 10  7  5  8  9  6
TYPE ASSIGNMENTS     10  7  5  8  9  6 10  7  5  8  9  6 10  7  5  8  9  6 10  7
TYPE ASSIGNMENTS      5  8  9  6 10  7  5  8  9  6 10  7  5  8  9  6 10  7  5  8
TYPE ASSIGNMENTS      9  6 10  7  5  8  9  6 10  7  5  8  9  6 10  7  5  8  9  6
TYPE ASSIGNMENTS     10  7  5  8  9  6 10  7  5  8  9  6 10  7  5  8  9  6 10  7
TYPE ASSIGNMENTS      5  8  9  6 10  7  5  8  9  6 10  7 11 14 15 17 20 18 12 16
TYPE ASSIGNMENTS     19 13 11 14 15 17 20 18 12 16 19 13 11 14 15 17 20 18 12 16
TYPE ASSIGNMENTS     19 13 11 14 15 17 20 18 12 16 19 13 11 14 15 17 20 18 12 16
TYPE ASSIGNMENTS     19 13 11 14 15 17 20 18 12 16 19 13 11 14 15 17 20 18 12 16
TYPE ASSIGNMENTS     19 13 11 14 15 17 20 18 12 16 19 13 11 14 15 17 20 18 12 16
TYPE ASSIGNMENTS     19 13 11 14 15 17 20 18 12 16 19 13 11 14 15 17 20 18 12 16
TYPE ASSIGNMENTS     19 13 21 24 25 30 33 31 26 34 35 28 22 27 32 29 23 21 24 25
TYPE ASSIGNMENTS     30 33 31 26 34 35 28 22 27 32 29 23 21 24 25 30 33 31 26 34
TYPE ASSIGNMENTS     35 28 22 27 32 29 23 21 24 25 30 33 31 26 34 35 28 22 27 32
TYPE ASSIGNMENTS     29 23 21 24 25 30 33 31 26 34 35 28 22 27 32 29 23
EXPONENTS  7.1631456E+07 1.9527428E+07 5.8913085E+06 1.8237219E+06 6.0867015E+05
EXPONENTS  2.1554362E+05 8.1184393E+04 3.2125636E+04 1.3547473E+04 6.1055473E+03
EXPONENTS  2.8182096E+03 1.1447659E+03 5.8186473E+04 1.3913195E+04 4.3620228E+03
EXPONENTS  1.6099746E+03 6.4176511E+02 4.1119525E+02 1.4976630E+02 7.7407565E+01
EXPONENTS  4.4101296E+01 2.1111789E+01 1.1081006E+01 5.2865762E+00 2.6233080E+00
EXPONENTS  1.1545561E+00 5.4926652E-01 2.4191560E-01 7.8330440E-02 2.9946421E-02
EXPONENTS  2.0000000E+02 2.0000000E+02 2.0000000E+02 4.6167619E+06 4.6167619E+06
EXPONENTS  4.6167619E+06 1.2732076E+06 1.2732076E+06 1.2732076E+06 3.7289406E+05
EXPONENTS  3.7289406E+05 3.7289406E+05 1.1598351E+05 1.1598351E+05 1.1598351E+05
EXPONENTS  3.8311708E+04 3.8311708E+04 3.8311708E+04 1.3439754E+04 1.3439754E+04
EXPONENTS  1.3439754E+04 5.0069775E+03 5.0069775E+03 5.0069775E+03 1.9809279E+03
EXPONENTS  1.9809279E+03 1.9809279E+03 8.2010699E+02 8.2010699E+02 8.2010699E+02
EXPONENTS  3.6545534E+02 3.6545534E+02 3.6545534E+02 1.7433844E+02 1.7433844E+02
EXPONENTS  1.7433844E+02 8.6930013E+01 8.6930013E+01 8.6930013E+01 4.3170548E+01
EXPONENTS  4.3170548E+01 4.3170548E+01 1.3373532E+03 1.3373532E+03 1.3373532E+03
EXPONENTS  4.6002147E+02 4.6002147E+02 4.6002147E+02 2.0177074E+02 2.0177074E+02
EXPONENTS  2.0177074E+02 5.0592186E+01 5.0592186E+01 5.0592186E+01 2.6259658E+01
EXPONENTS  2.6259658E+01 2.6259658E+01 1.3521491E+01 1.3521491E+01 1.3521491E+01
EXPONENTS  6.0324304E+00 6.0324304E+00 6.0324304E+00 7.4775279E+01 7.4775279E+01
EXPONENTS  7.4775279E+01 2.6869351E+01 2.6869351E+01 2.6869351E+01 8.0930073E+00
EXPONENTS  8.0930073E+00 8.0930073E+00 4.3857252E+00 4.3857252E+00 4.3857252E+00
EXPONENTS  2.1800547E+00 2.1800547E+00 2.1800547E+00 3.9313037E+00 3.9313037E+00
EXPONENTS  3.9313037E+00 1.2723843E+00 1.2723843E+00 1.2723843E+00 6.9123686E-01
EXPONENTS  6.9123686E-01 6.9123686E-01 7.9451563E-01 7.9451563E-01 7.9451563E-01
EXPONENTS  3.2725504E-01 3.2725504E-01 3.2725504E-01 1.3936931E-01 1.3936931E-01
EXPONENTS  1.3936931E-01 7.2967129E-02 7.2967129E-02 7.2967129E-02 2.2140710E-02
EXPONENTS  2.2140710E-02 2.2140710E-02 4.6386187E+03 4.6386187E+03 4.6386187E+03
EXPONENTS  4.6386187E+03 4.6386187E+03 4.6386187E+03 1.3247649E+03 1.3247649E+03
EXPONENTS  1.3247649E+03 1.3247649E+03 1.3247649E+03 1.3247649E+03 5.1279009E+02
EXPONENTS  5.1279009E+02 5.1279009E+02 5.1279009E+02 5.1279009E+02 5.1279009E+02
EXPONENTS  2.2651343E+02 2.2651343E+02 2.2651343E+02 2.2651343E+02 2.2651343E+02
EXPONENTS  2.2651343E+02 1.0895244E+02 1.0895244E+02 1.0895244E+02 1.0895244E+02
EXPONENTS  1.0895244E+02 1.0895244E+02 5.4558069E+01 5.4558069E+01 5.4558069E+01
EXPONENTS  5.4558069E+01 5.4558069E+01 5.4558069E+01 2.7464920E+01 2.7464920E+01
EXPONENTS  2.7464920E+01 2.7464920E+01 2.7464920E+01 2.7464920E+01 1.3875431E+01
EXPONENTS  1.3875431E+01 1.3875431E+01 1.3875431E+01 1.3875431E+01 1.3875431E+01
EXPONENTS  2.8000000E+01 2.8000000E+01 2.8000000E+01 2.8000000E+01 2.8000000E+01
EXPONENTS  2.8000000E+01 2.3424738E+02 2.3424738E+02 2.3424738E+02 2.3424738E+02
EXPONENTS  2.3424738E+02 2.3424738E+02 8.9421217E+01 8.9421217E+01 8.9421217E+01
EXPONENTS  8.9421217E+01 8.9421217E+01 8.9421217E+01 1.7143700E+01 1.7143700E+01
EXPONENTS  1.7143700E+01 1.7143700E+01 1.7143700E+01 1.7143700E+01 6.4836062E+00
EXPONENTS  6.4836062E+00 6.4836062E+00 6.4836062E+00 6.4836062E+00 6.4836062E+00
EXPONENTS  1.0141209E+01 1.0141209E+01 1.0141209E+01 1.0141209E+01 1.0141209E+01
EXPONENTS  1.0141209E+01 3.6485847E+00 3.6485847E+00 3.6485847E+00 3.6485847E+00
EXPONENTS  3.6485847E+00 3.6485847E+00 1.8523518E+00 1.8523518E+00 1.8523518E+00
EXPONENTS  1.8523518E+00 1.8523518E+00 1.8523518E+00 8.1553166E-01 8.1553166E-01
EXPONENTS  8.1553166E-01 8.1553166E-01 8.1553166E-01 8.1553166E-01 3.3068361E-01
EXPONENTS  3.3068361E-01 3.3068361E-01 3.3068361E-01 3.3068361E-01 3.3068361E-01
EXPONENTS  1.2781532E-01 1.2781532E-01 1.2781532E-01 1.2781532E-01 1.2781532E-01
EXPONENTS  1.2781532E-01 4.6561849E-02 4.6561849E-02 4.6561849E-02 4.6561849E-02
EXPONENTS  4.6561849E-02 4.6561849E-02 2.3246598E+02 2.3246598E+02 2.3246598E+02
EXPONENTS  2.3246598E+02 2.3246598E+02 2.3246598E+02 2.3246598E+02 2.3246598E+02
EXPONENTS  2.3246598E+02 2.3246598E+02 9.1621198E+01 9.1621198E+01 9.1621198E+01
EXPONENTS  9.1621198E+01 9.1621198E+01 9.1621198E+01 9.1621198E+01 9.1621198E+01
EXPONENTS  9.1621198E+01 9.1621198E+01 4.5900473E+01 4.5900473E+01 4.5900473E+01
EXPONENTS  4.5900473E+01 4.5900473E+01 4.5900473E+01 4.5900473E+01 4.5900473E+01
EXPONENTS  4.5900473E+01 4.5900473E+01 2.3109842E+01 2.3109842E+01 2.3109842E+01
EXPONENTS  2.3109842E+01 2.3109842E+01 2.3109842E+01 2.3109842E+01 2.3109842E+01
EXPONENTS  2.3109842E+01 2.3109842E+01 1.1617780E+01 1.1617780E+01 1.1617780E+01
EXPONENTS  1.1617780E+01 1.1617780E+01 1.1617780E+01 1.1617780E+01 1.1617780E+01
EXPONENTS  1.1617780E+01 1.1617780E+01 5.8660513E+00 5.8660513E+00 5.8660513E+00
EXPONENTS  5.8660513E+00 5.8660513E+00 5.8660513E+00 5.8660513E+00 5.8660513E+00
EXPONENTS  5.8660513E+00 5.8660513E+00 2.9296227E+00 2.9296227E+00 2.9296227E+00
EXPONENTS  2.9296227E+00 2.9296227E+00 2.9296227E+00 2.9296227E+00 2.9296227E+00
EXPONENTS  2.9296227E+00 2.9296227E+00 1.4072939E+00 1.4072939E+00 1.4072939E+00
EXPONENTS  1.4072939E+00 1.4072939E+00 1.4072939E+00 1.4072939E+00 1.4072939E+00
EXPONENTS  1.4072939E+00 1.4072939E+00 6.3759825E-01 6.3759825E-01 6.3759825E-01
EXPONENTS  6.3759825E-01 6.3759825E-01 6.3759825E-01 6.3759825E-01 6.3759825E-01
EXPONENTS  6.3759825E-01 6.3759825E-01 2.5986488E-01 2.5986488E-01 2.5986488E-01
EXPONENTS  2.5986488E-01 2.5986488E-01 2.5986488E-01 2.5986488E-01 2.5986488E-01
EXPONENTS  2.5986488E-01 2.5986488E-01 8.7000000E-02 8.7000000E-02 8.7000000E-02
EXPONENTS  8.7000000E-02 8.7000000E-02 8.7000000E-02 8.7000000E-02 8.7000000E-02
EXPONENTS  8.7000000E-02 8.7000000E-02 2.1158600E+01 2.1158600E+01 2.1158600E+01
EXPONENTS  2.1158600E+01 2.1158600E+01 2.1158600E+01 2.1158600E+01 2.1158600E+01
EXPONENTS  2.1158600E+01 2.1158600E+01 2.1158600E+01 2.1158600E+01 2.1158600E+01
EXPONENTS  2.1158600E+01 2.1158600E+01 9.6381000E+00 9.6381000E+00 9.6381000E+00
EXPONENTS  9.6381000E+00 9.6381000E+00 9.6381000E+00 9.6381000E+00 9.6381000E+00
EXPONENTS  9.6381000E+00 9.6381000E+00 9.6381000E+00 9.6381000E+00 9.6381000E+00
EXPONENTS  9.6381000E+00 9.6381000E+00 4.3953000E+00 4.3953000E+00 4.3953000E+00
EXPONENTS  4.3953000E+00 4.3953000E+00 4.3953000E+00 4.3953000E+00 4.3953000E+00
EXPONENTS  4.3953000E+00 4.3953000E+00 4.3953000E+00 4.3953000E+00 4.3953000E+00
EXPONENTS  4.3953000E+00 4.3953000E+00 1.9426000E+00 1.9426000E+00 1.9426000E+00
EXPONENTS  1.9426000E+00 1.9426000E+00 1.9426000E+00 1.9426000E+00 1.9426000E+00
EXPONENTS  1.9426000E+00 1.9426000E+00 1.9426000E+00 1.9426000E+00 1.9426000E+00
EXPONENTS  1.9426000E+00 1.9426000E+00 4.7823000E-01 4.7823000E-01 4.7823000E-01
EXPONENTS  4.7823000E-01 4.7823000E-01 4.7823000E-01 4.7823000E-01 4.7823000E-01
EXPONENTS  4.7823000E-01 4.7823000E-01 4.7823000E-01 4.7823000E-01 4.7823000E-01
EXPONENTS  4.7823000E-01 4.7823000E-01
MO    1                     OCC NO =   1.00000000 ORB. ENERGY = -1971.84803355
  1.12205584E+02  1.09611670E+02  9.95928312E+01  8.62022130E+01  7.55691820E+01
  6.89709160E+01  6.39849946E+01  6.24287923E+01  6.03477108E+01  5.40867155E+01
  4.99534243E+01  3.24200720E+01  2.75649559E+00  6.23011932E+00  1.42981784E+01
  2.42874670E+01  1.59184835E+01  9.89116057E+00  1.26733925E+00 -4.66001374E-01
  2.06873602E-01 -6.73059240E-02  2.65676645E-02 -8.58413914E-03  2.86799421E-03
 -8.08467753E-04  2.50057818E-04 -5.21935727E-05  6.99572427E-06 -1.05523221E-06
  0.00000000E+00  0.00000000E+00  0.00000000E+00  0.00000000E+00  0.00000000E+00
  0.00000000E+00  0.00000000E+00  0.00000000E+00  0.00000000E+00  0.00000000E+00
  0.00000000E+00  0.00000000E+00  0.00000000E+00  0.00000000E+00  0.00000000E+00
  0.00000000E+00  0.00000000E+00  0.00000000E+00  0.00000000E+00  0.00000000E+00
  0.00000000E+00  0.00000000E+00  0.00000000E+00  0.00000000E+00  0.00000000E+00
  0.00000000E+00  0.00000000E+00  0.00000000E+00  0.00000000E+00  0.00000000E+00
  0.00000000E+00  0.00000000E+00  0.00000000E+00  0.00000000E+00  0.00000000E+00
  0.00000000E+00  0.00000000E+00  0.00000000E+00  0.00000000E+00  0.00000000E+00
  0.00000000E+00  0.00000000E+00  0.00000000E+00  0.00000000E+00  0.00000000E+00
  0.00000000E+00  0.00000000E+00  0.00000000E+00  0.00000000E+00  0.00000000E+00
  0.00000000E+00  0.00000000E+00  0.00000000E+00  0.00000000E+00  0.00000000E+00
  0.00000000E+00  0.00000000E+00  0.00000000E+00  0.00000000E+00  0.00000000E+00
  0.00000000E+00  0.00000000E+00  0.00000000E+00  0.00000000E+00  0.00000000E+00
  0.00000000E+00  0.00000000E+00  0.00000000E+00  0.00000000E+00  0.00000000E+00
  0.00000000E+00  0.00000000E+00  0.00000000E+00  0.00000000E+00  0.00000000E+00
  0.00000000E+00  0.00000000E+00  0.00000000E+00  0.00000000E+00  0.00000000E+00
  0.00000000E+00  0.00000000E+00  0.00000000E+00  0.00000000E+00  0.00000000E+00
  0.00000000E+00  0.00000000E+00  0.00000000E+00  0.00000000E+00  0.00000000E+00
  0.00000000E+00  0.00000000E+00  0.00000000E+00  0.00000000E+00  0.00000000E+00
  0.00000000E+00  0.00000000E+00  0.00000000E+00  0.00000000E+00  0.00000000E+00
  0.00000000E+00  0.00000000E+00  0.00000000E+00  0.00000000E+00  0.00000000E+00
  0.00000000E+00  0.00000000E+00  0.00000000E+00  0.00000000E+00  0.00000000E+00
  0.00000000E+00  0.00000000E+00  0.00000000E+00  0.00000000E+00  0.00000000E+00
  0.00000000E+00  0.00000000E+00  0.00000000E+00  0.00000000E+00  0.00000000E+00
  0.00000000E+00  0.00000000E+00  0.00000000E+00  0.00000000E+00  0.00000000E+00
  0.00000000E+00  0.00000000E+00  0.00000000E+00  0.00000000E+00  0.00000000E+00
  0.00000000E+00  0.00000000E+00  0.00000000E+00  0.00000000E+00  0.00000000E+00
  0.00000000E+00  0.00000000E+00  0.00000000E+00  0.00000000E+00  0.00000000E+00
  0.00000000E+00  0.00000000E+00  0.00000000E+00  0.00000000E+00  0.00000000E+00
  0.00000000E+00  0.00000000E+00  0.00000000E+00  0.00000000E+00  0.00000000E+00
  0.00000000E+00  0.00000000E+00  0.00000000E+00  0.00000000E+00  0.00000000E+00
  0.00000000E+00  0.00000000E+00  0.00000000E+00  0.00000000E+00  0.00000000E+00
  0.00000000E+00  0.00000000E+00  0.00000000E+00  0.00000000E+00  0.00000000E+00
  0.00000000E+00  0.00000000E+00  0.00000000E+00  0.00000000E+00  0.00000000E+00
  0.00000000E+00  0.00000000E+00  0.00000000E+00  0.00000000E+00  0.00000000E+00
  0.00000000E+00  0.00000000E+00  0.00000000E+00  0.00000000E+00  0.00000000E+00
  0.00000000E+00  0.00000000E+00  0.00000000E+00  0.00000000E+00  0.00000000E+00
  0.00000000E+00  0.00000000E+00  0.00000000E+00  0.00000000E+00  0.00000000E+00
  0.00000000E+00  0.00000000E+00  0.00000000E+00  0.00000000E+00  0.00000000E+00
  0.00000000E+00  0.00000000E+00  0.00000000E+00  0.00000000E+00  0.00000000E+00
  0.00000000E+00  0.00000000E+00  0.00000000E+00  0.00000000E+00  0.00000000E+00
  0.00000000E+00  0.00000000E+00  0.00000000E+00  0.00000000E+00  0.00000000E+00
  0.00000000E+00  0.00000000E+00  0.00000000E+00  0.00000000E+00  0.00000000E+00
  0.00000000E+00  0.00000000E+00  0.00000000E+00  0.00000000E+00  0.00000000E+00
  0.00000000E+00  0.00000000E+00  0.00000000E+00  0.00000000E+00  0.00000000E+00
  0.00000000E+00  0.00000000E+00  0.00000000E+00  0.00000000E+00  0.00000000E+00
  0.00000000E+00  0.00000000E+00  0.00000000E+00  0.00000000E+00  0.00000000E+00
  0.00000000E+00  0.00000000E+00  0.00000000E+00  0.00000000E+00  0.00000000E+00
  0.00000000E+00  0.00000000E+00  0.00000000E+00  0.00000000E+00  0.00000000E+00
  0.00000000E+00  0.00000000E+00  0.00000000E+00  0.00000000E+00  0.00000000E+00
  0.00000000E+00  0.00000000E+00  0.00000000E+00  0.00000000E+00  0.00000000E+00
  0.00000000E+00  0.00000000E+00  0.00000000E+00  0.00000000E+00  0.00000000E+00
  0.00000000E+00  0.00000000E+00  0.00000000E+00  0.00000000E+00  0.00000000E+00
  0.00000000E+00  0.00000000E+00  0.00000000E+00  0.00000000E+00  0.00000000E+00
  0.00000000E+00  0.00000000E+00  0.00000000E+00  0.00000000E+00  0.00000000E+00
  0.00000000E+00  0.00000000E+00  0.00000000E+00  0.00000000E+00  0.00000000E+00
  0.00000000E+00  0.00000000E+00  0.00000000E+00  0.00000000E+00  0.00000000E+00
  0.00000000E+00  0.00000000E+00  0.00000000E+00  0.00000000E+00  0.00000000E+00
  0.00000000E+00  0.00000000E+00  0.00000000E+00  0.00000000E+00  0.00000000E+00
  0.00000000E+00  0.00000000E+00  0.00000000E+00  0.00000000E+00  0.00000000E+00
  0.00000000E+00  0.00000000E+00  0.00000000E+00  0.00000000E+00  0.00000000E+00
  0.00000000E+00  0.00000000E+00  0.00000000E+00  0.00000000E+00  0.00000000E+00
  0.00000000E+00  0.00000000E+00  0.00000000E+00  0.00000000E+00  0.00000000E+00
  0.00000000E+00  0.00000000E+00  0.00000000E+00  0.00000000E+00  0.00000000E+00
  0.00000000E+00  0.00000000E+00  0.00000000E+00  0.00000000E+00  0.00000000E+00
  0.00000000E+00  0.00000000E+00  0.00000000E+00  0.00000000E+00  0.00000000E+00
  0.00000000E+00  0.00000000E+00  0.00000000E+00  0.00000000E+00  0.00000000E+00
  0.00000000E+00  0.00000000E+00  0.00000000E+00  0.00000000E+00  0.00000000E+00
  0.00000000E+00  0.00000000E+00  0.00000000E+00  0.00000000E+00  0.00000000E+00
  0.00000000E+00  0.00000000E+00  0.00000000E+00  0.00000000E+00  0.00000000E+00
  0.00000000E+00  0.00000000E+00  0.00000000E+00  0.00000000E+00  0.00000000E+00
  0.00000000E+00  0.00000000E+00  0.00000000E+00  0.00000000E+00  0.00000000E+00
  0.00000000E+00  0.00000000E+00  0.00000000E+00  0.00000000E+00  0.00000000E+00
  0.00000000E+00  0.00000000E+00  0.00000000E+00  0.00000000E+00  0.00000000E+00
  0.00000000E+00  0.00000000E+00  0.00000000E+00  0.00000000E+00  0.00000000E+00
  0.00000000E+00  0.00000000E+00  0.00000000E+00  0.00000000E+00  0.00000000E+00
  0.00000000E+00  0.00000000E+00  0.00000000E+00  0.00000000E+00  0.00000000E+00
  0.00000000E+00  0.00000000E+00  0.00000000E+00  0.00000000E+00  0.00000000E+00
  0.00000000E+00  0.00000000E+00  0.00000000E+00  0.00000000E+00  0.00000000E+00
  0.00000000E+00  0.00000000E+00  0.00000000E+00  0.00000000E+00  0.00000000E+00
  0.00000000E+00  0.00000000E+00  0.00000000E+00  0.00000000E+00  0.00000000E+00
  0.00000000E+00  0.00000000E+00
MO    2                     OCC NO =   1.00000000 ORB. ENERGY = -329.51817510
 -4.18721865E+01 -4.09042056E+01 -3.71654372E+01 -3.21684091E+01 -2.82004403E+01
 -2.57381402E+01 -2.38775249E+01 -2.32967909E+01 -2.25201857E+01 -2.01837462E+01
 -1.86413102E+01 -1.20983221E+01 -1.98930213E+00 -4.49613983E+00 -1.03186803E+01
 -1.75277297E+01 -1.60786370E+01  3.87022061E-01  1.37796562E+01  8.90372395E+00
  2.23531429E+00  1.43845395E-01 -1.73209318E-02  3.96219654E-03 -1.21017557E-03
  3.17577960E-04 -9.51667095E-05  1.97795548E-05 -2.63258104E-06  3.96564715E-07
  0.00000000E+00  0.00000000E+00  0.00000000E+00  0.00000000E+00  0.00000000E+00
  0.00000000E+00  0.00000000E+00  0.00000000E+00  0.00000000E+00  0.00000000E+00
  0.00000000E+00  0.00000000E+00  0.00000000E+00  0.00000000E+00  0.00000000E+00
  0.00000000E+00  0.00000000E+00  0.00000000E+00  0.00000000E+00  0.00000000E+00
  0.00000000E+00  0.00000000E+00  0.00000000E+00  0.00000000E+00  0.00000000E+00
  0.00000000E+00  0.00000000E+00  0.00000000E+00  0.00000000E+00  0.00000000E+00
  0.00000000E+00  0.00000000E+00  0.00000000E+00  0.00000000E+00  0.00000000E+00
  0.00000000E+00  0.00000000E+00  0.00000000E+00  0.00000000E+00  0.00000000E+00
  0.00000000E+00  0.00000000E+00  0.00000000E+00  0.00000000E+00  0.00000000E+00
  0.00000000E+00  0.00000000E+00  0.00000000E+00  0.00000000E+00  0.00000000E+00
  0.00000000E+00  0.00000000E+00  0.00000000E+00  0.00000000E+00  0.00000000E+00
  0.00000000E+00  0.00000000E+00  0.00000000E+00  0.00000000E+00  0.00000000E+00
  0.00000000E+00  0.00000000E+00  0.00000000E+00  0.00000000E+00  0.00000000E+00
  0.00000000E+00  0.00000000E+00  0.00000000E+00  0.00000000E+00  0.00000000E+00
  0.00000000E+00  0.00000000E+00  0.00000000E+00  0.00000000E+00  0.00000000E+00
  0.00000000E+00  0.00000000E+00  0.00000000E+00  0.00000000E+00  0.00000000E+00
  0.00000000E+00  0.00000000E+00  0.00000000E+00  0.00000000E+00  0.00000000E+00
  0.00000000E+00  0.00000000E+00  0.00000000E+00  0.00000000E+00  0.00000000E+00
  0.00000000E+00  0.00000000E+00  0.00000000E+00  0.00000000E+00  0.00000000E+00
  0.00000000E+00  0.00000000E+00  0.00000000E+00  0.00000000E+00  0.00000000E+00
  0.00000000E+00  0.00000000E+00  0.00000000E+00  0.00000000E+00  0.00000000E+00
  0.00000000E+00  0.00000000E+00  0.00000000E+00  0.00000000E+00  0.00000000E+00
  0.00000000E+00  0.00000000E+00  0.00000000E+00  0.00000000E+00  0.00000000E+00
  0.00000000E+00  0.00000000E+00  0.00000000E+00  0.00000000E+00  0.00000000E+00
  0.00000000E+00  0.00000000E+00  0.00000000E+00  0.00000000E+00  0.00000000E+00
  0.00000000E+00  0.00000000E+00  0.00000000E+00  0.00000000E+00  0.00000000E+00
  0.00000000E+00  0.00000000E+00  0.00000000E+00  0.00000000E+00  0.00000000E+00
  0.00000000E+00  0.00000000E+00  0.00000000E+00  0.00000000E+00  0.00000000E+00
  0.00000000E+00  0.00000000E+00  0.00000000E+00  0.00000000E+00  0.00000000E+00
  0.00000000E+00  0.00000000E+00  0.00000000E+00  0.00000000E+00  0.00000000E+00
  0.00000000E+00  0.00000000E+00  0.00000000E+00  0.00000000E+00  0.00000000E+00
  0.00000000E+00  0.00000000E+00  0.00000000E+00  0.00000000E+00  0.00000000E+00
  0.00000000E+00  0.00000000E+00  0.00000000E+00  0.00000000E+00  0.00000000E+00
  0.00000000E+00  0.00000000E+00  0.00000000E+00  0.00000000E+00  0.00000000E+00
  0.00000000E+00  0.00000000E+00  0.00000000E+00  0.00000000E+00  0.00000000E+00
  0.00000000E+00  0.00000000E+00  0.00000000E+00  0.00000000E+00  0.00000000E+00
  0.00000000E+00  0.00000000E+00  0.00000000E+00  0.00000000E+00  0.00000000E+00
  0.00000000E+00  0.00000000E+00  0.00000000E+00  0.00000000E+00  0.00000000E+00
  0.00000000E+00  0.00000000E+00  0.00000000E+00  0.00000000E+00  0.00000000E+00
  0.00000000E+00  0.00000000E+00  0.00000000E+00  0.00000000E+00  0.00000000E+00
  0.00000000E+00  0.00000000E+00  0.00000000E+00  0.00000000E+00  0.00000000E+00
  0.00000000E+00  0.00000000E+00  0.00000000E+00  0.00000000E+00  0.00000000E+00
  0.00000000E+00  0.00000000E+00  0.00000000E+00  0.00000000E+00  0.00000000E+00
  0.00000000E+00  0.00000000E+00  0.00000000E+00  0.00000000E+00  0.00000000E+00
  0.00000000E+00  0.00000000E+00  0.00000000E+00  0.00000000E+00  0.00000000E+00
  0.00000000E+00  0.00000000E+00  0.00000000E+00  0.00000000E+00  0.00000000E+00
  0.00000000E+00  0.00000000E+00  0.00000000E+00  0.00000000E+00  0.00000000E+00
  0.00000000E+00  0.00000000E+00  0.00000000E+00  0.00000000E+00  0.00000000E+00
  0.00000000E+00  0.00000000E+00  0.00000000E+00  0.00000000E+00  0.00000000E+00
  0.00000000E+00  0.00000000E+00  0.00000000E+00  0.00000000E+00  0.00000000E+00
  0.00000000E+00  0.00000000E+00  0.00000000E+00  0.00000000E+00  0.00000000E+00
  0.00000000E+00  0.00000000E+00  0.00000000E+00  0.00000000E+00  0.00000000E+00
  0.00000000E+00  0.00000000E+00  0.00000000E+00  0.00000000E+00  0.00000000E+00
  0.00000000E+00  0.00000000E+00  0.00000000E+00  0.00000000E+00  0.00000000E+00
  0.00000000E+00  0.00000000E+00  0.00000000E+00  0.00000000E+00  0.00000000E+00
  0.00000000E+00  0.00000000E+00  0.00000000E+00  0.00000000E+00  0.00000000E+00
  0.00000000E+00  0.00000000E+00  0.00000000E+00  0.00000000E+00  0.00000000E+00
  0.00000000E+00  0.00000000E+00  0.00000000E+00  0.00000000E+00  0.00000000E+00
  0.00000000E+00  0.00000000E+00  0.00000000E+00  0.00000000E+00  0.00000000E+00
  0.00000000E+00  0.00000000E+00  0.00000000E+00  0.00000000E+00  0.00000000E+00
  0.00000000E+00  0.00000000E+00  0.00000000E+00  0.00000000E+00  0.00000000E+00
  0.00000000E+00  0.00000000E+00  0.00000000E+00  0.00000000E+00  0.00000000E+00
  0.00000000E+00  0.00000000E+00  0.00000000E+00  0.00000000E+00  0.00000000E+00
  0.00000000E+00  0.00000000E+00  0.00000000E+00  0.00000000E+00  0.00000000E+00
  0.00000000E+00  0.00000000E+00  0.00000000E+00  0.00000000E+00  0.00000000E+00
  0.00000000E+00  0.00000000E+00  0.00000000E+00  0.00000000E+00  0.00000000E+00
  0.00000000E+00  0.00000000E+00  0.00000000E+00  0.00000000E+00  0.00000000E+00
  0.00000000E+00  0.00000000E+00  0.00000000E+00  0.00000000E+00  0.00000000E+00
  0.00000000E+00  0.00000000E+00  0.00000000E+00  0.00000000E+00  0.00000000E+00
  0.00000000E+00  0.00000000E+00  0.00000000E+00  0.00000000E+00  0.00000000E+00
  0.00000000E+00  0.00000000E+00  0.00000000E+00  0.00000000E+00  0.00000000E+00
  0.00000000E+00  0.00000000E+00  0.00000000E+00  0.00000000E+00  0.00000000E+00
  0.00000000E+00  0.00000000E+00  0.00000000E+00  0.00000000E+00  0.00000000E+00
  0.00000000E+00  0.00000000E+00  0.00000000E+00  0.00000000E+00  0.00000000E+00
  0.00000000E+00  0.00000000E+00  0.00000000E+00  0.00000000E+00  0.00000000E+00
  0.00000000E+00  0.00000000E+00  0.00000000E+00  0.00000000E+00  0.00000000E+00
  0.00000000E+00  0.00000000E+00  0.00000000E+00  0.00000000E+00  0.00000000E+00
  0.00000000E+00  0.00000000E+00  0.00000000E+00  0.00000000E+00  0.00000000E+00
  0.00000000E+00  0.00000000E+00  0.00000000E+00  0.00000000E+00  0.00000000E+00
  0.00000000E+00  0.00000000E+00  0.00000000E+00  0.00000000E+00  0.00000000E+00
  0.00000000E+00  0.00000000E+00  0.00000000E+00  0.00000000E+00  0.00000000E+00
  0.00000000E+00  0.00000000E+00
MO    3                     OCC NO =   1.00000000 ORB. ENERGY = -73.91128184
  1.95437203E+01  1.90919180E+01  1.73468589E+01  1.50145106E+01  1.31624728E+01
  1.20132015E+01  1.11447647E+01  1.08737088E+01  1.05112307E+01  9.42070437E+00
  8.70077686E+00  5.64685637E+00  1.01433334E+00  2.29255500E+00  5.26143382E+00
  8.93728533E+00  8.89844182E+00 -1.05823409E+00 -1.09819401E+01 -1.02449333E+01
 -3.69259302E-01  5.63180234E+00  2.05295387E+00  1.04294115E-01 -5.70711427E-03
  1.43936162E-03 -4.35582556E-04  8.83536210E-05 -1.19606107E-05  1.80783102E-06
  0.00000000E+00  0.00000000E+00  0.00000000E+00  0.00000000E+00  0.00000000E+00
  0.00000000E+00  0.00000000E+00  0.00000000E+00  0.00000000E+00  0.00000000E+00
  0.00000000E+00  0.00000000E+00  0.00000000E+00  0.00000000E+00  0.00000000E+00
  0.00000000E+00  0.00000000E+00  0.00000000E+00  0.00000000E+00  0.00000000E+00
  0.00000000E+00  0.00000000E+00  0.00000000E+00  0.00000000E+00  0.00000000E+00
  0.00000000E+00  0.00000000E+00  0.00000000E+00  0.00000000E+00  0.00000000E+00
  0.00000000E+00  0.00000000E+00  0.00000000E+00  0.00000000E+00  0.00000000E+00
  0.00000000E+00  0.00000000E+00  0.00000000E+00  0.00000000E+00  0.00000000E+00
  0.00000000E+00  0.00000000E+00  0.00000000E+00  0.00000000E+00  0.00000000E+00
  0.00000000E+00  0.00000000E+00  0.00000000E+00  0.00000000E+00  0.00000000E+00
  0.00000000E+00  0.00000000E+00  0.00000000E+00  0.00000000E+00  0.00000000E+00
  0.00000000E+00  0.00000000E+00  0.00000000E+00  0.00000000E+00  0.00000000E+00
  0.00000000E+00  0.00000000E+00  0.00000000E+00  0.00000000E+00  0.00000000E+00
  0.00000000E+00  0.00000000E+00  0.00000000E+00  0.00000000E+00  0.00000000E+00
  0.00000000E+00  0.00000000E+00  0.00000000E+00  0.00000000E+00  0.00000000E+00
  0.00000000E+00  0.00000000E+00  0.00000000E+00  0.00000000E+00  0.00000000E+00
  0.00000000E+00  0.00000000E+00  0.00000000E+00  0.00000000E+00  0.00000000E+00
  0.00000000E+00  0.00000000E+00  0.00000000E+00  0.00000000E+00  0.00000000E+00
  0.00000000E+00  0.00000000E+00  0.00000000E+00  0.00000000E+00  0.00000000E+00
  0.00000000E+00  0.00000000E+00  0.00000000E+00  0.00000000E+00  0.00000000E+00
  0.00000000E+00  0.00000000E+00  0.00000000E+00  0.00000000E+00  0.00000000E+00
  0.00000000E+00  0.00000000E+00  0.00000000E+00  0.00000000E+00  0.00000000E+00
  0.00000000E+00  0.00000000E+00  0.00000000E+00  0.00000000E+00  0.00000000E+00
  0.00000000E+00  0.00000000E+00  0.00000000E+00  0.00000000E+00  0.00000000E+00
  0.00000000E+00  0.00000000E+00  0.00000000E+00  0.00000000E+00  0.00000000E+00
  0.00000000E+00  0.00000000E+00  0.00000000E+00  0.00000000E+00  0.00000000E+00
  0.00000000E+00  0.00000000E+00  0.00000000E+00  0.00000000E+00  0.00000000E+00
  0.00000000E+00  0.00000000E+00  0.00000000E+00  0.00000000E+00  0.00000000E+00
  0.00000000E+00  0.00000000E+00  0.00000000E+00  0.00000000E+00  0.00000000E+00
  0.00000000E+00  0.00000000E+00  0.00000000E+00  0.00000000E+00  0.00000000E+00
  0.00000000E+00  0.00000000E+00  0.00000000E+00  0.00000000E+00  0.00000000E+00
  0.00000000E+00  0.00000000E+00  0.00000000E+00  0.00000000E+00  0.00000000E+00
  0.00000000E+00  0.00000000E+00  0.00000000E+00  0.00000000E+00  0.00000000E+00
  0.00000000E+00  0.00000000E+00  0.00000000E+00  0.00000000E+00  0.00000000E+00
  0.00000000E+00  0.00000000E+00  0.00000000E+00  0.00000000E+00  0.00000000E+00
  0.00000000E+00  0.00000000E+00  0.00000000E+00  0.00000000E+00  0.00000000E+00
  0.00000000E+00  0.00000000E+00  0.00000000E+00  0.00000000E+00  0.00000000E+00
  0.00000000E+00  0.00000000E+00  0.00000000E+00  0.00000000E+00  0.00000000E+00
  0.00000000E+00  0.00000000E+00  0.00000000E+00  0.00000000E+00  0.00000000E+00
  0.00000000E+00  0.00000000E+00  0.00000000E+00  0.00000000E+00  0.00000000E+00
  0.00000000E+00  0.00000000E+00  0.00000000E+00  0.00000000E+00  0.00000000E+00
  0.00000000E+00  0.00000000E+00  0.00000000E+00  0.00000000E+00  0.00000000E+00
  0.00000000E+00  0.00000000E+00  0.00000000E+00  0.00000000E+00  0.00000000E+00
  0.00000000E+00  0.00000000E+00  0.00000000E+00  0.00000000E+00  0.00000000E+00
  0.00000000E+00  0.00000000E+00  0.00000000E+00  0.00000000E+00  0.00000000E+00
  0.00000000E+00  0.00000000E+00  0.00000000E+00  0.00000000E+00  0.00000000E+00
  0.00000000E+00  0.00000000E+00  0.00000000E+00  0.00000000E+00  0.00000000E+00
  0.00000000E+00  0.00000000E+00  0.00000000E+00  0.00000000E+00  0.00000000E+00
  0.00000000E+00  0.00000000E+00  0.00000000E+00  0.00000000E+00  0.00000000E+00
  0.00000000E+00  0.00000000E+00  0.00000000E+00  0.00000000E+00  0.00000000E+00
  0.00000000E+00  0.00000000E+00  0.00000000E+00  0.00000000E+00  0.00000000E+00
  0.00000000E+00  0.00000000E+00  0.00000000E+00  0.00000000E+00  0.00000000E+00
  0.00000000E+00  0.00000000E+00  0.00000000E+00  0.00000000E+00  0.00000000E+00