atomref-proatoms Er_q0_mult3_nist x2c-QZVPall
GAUSSIAN             70 MOL ORBITALS    437 PRIMITIVES        1 NUCLEI
  Er   1    (CENTRE  1)   0.00000000  0.00000000  0.00000000  CHARGE = 68.0
CENTRE ASSIGNMENTS    1  1  1  1  1  1  1  1  1  1  1  1  1  1  1  1  1  1  1  1
CENTRE ASSIGNMENTS    1  1  1  1  1  1  1  1  1  1  1  1  1  1  1  1  1  1  1  1
CENTRE ASSIGNMENTS    1  1  1  1  1  1  1  1  1  1  1  1  1  1  1  1  1  1  1  1
CENTRE ASSIGNMENTS    1  1  1  1  1  1  1  1  1  1  1  1  1  1  1  1  1  1  1  1
CENTRE ASSIGNMENTS    1  1  1  1  1  1  1  1  1  1  1  1  1  1  1  1  1  1  1  1
CENTRE ASSIGNMENTS    1  1  1  1  1  1  1  1  1  1  1  1  1  1  1  1  1  1  1  1
CENTRE ASSIGNMENTS    1  1  1  1  1  1  1  1  1  1  1  1  1  1  1  1  1  1  1  1
CENTRE ASSIGNMENTS    1  1  1  1  1  1  1  1  1  1  1  1  1  1  1  1  1  1  1  1
CENTRE ASSIGNMENTS    1  1  1  1  1  1  1  1  1  1  1  1  1  1  1  1  1  1  1  1
CENTRE ASSIGNMENTS    1  1  1  1  1  1  1  1  1  1  1  1  1  1  1  1  1  1  1  1
CENTRE ASSIGNMENTS    1  1  1  1  1  1  1  1  1  1  1  1  1  1  1  1  1  1  1  1
CENTRE ASSIGNMENTS    1  1  1  1  1  1  1  1  1  1  1  1  1  1  1  1  1  1  1  1
CENTRE ASSIGNMENTS    1  1  1  1  1  1  1  1  1  1  1  1  1  1  1  1  1  1  1  1
CENTRE ASSIGNMENTS    1  1  1  1  1  1  1  1  1  1  1  1  1  1  1  1  1  1  1  1
CENTRE ASSIGNMENTS    1  1  1  1  1  1  1  1  1  1  1  1  1  1  1  1  1  1  1  1
CENTRE ASSIGNMENTS    1  1  1  1  1  1  1  1  1  1  1  1  1  1  1  1  1  1  1  1
CENTRE ASSIGNMENTS    1  1  1  1  1  1  1  1  1  1  1  1  1  1  1  1  1  1  1  1
CENTRE ASSIGNMENTS    1  1  1  1  1  1  1  1  1  1  1  1  1  1  1  1  1  1  1  1
CENTRE ASSIGNMENTS    1  1  1  1  1  1  1  1  1  1  1  1  1  1  1  1  1  1  1  1
CENTRE ASSIGNMENTS    1  1  1  1  1  1  1  1  1  1  1  1  1  1  1  1  1  1  1  1
CENTRE ASSIGNMENTS    1  1  1  1  1  1  1  1  1  1  1  1  1  1  1  1  1  1  1  1
CENTRE ASSIGNMENTS    1  1  1  1  1  1  1  1  1  1  1  1  1  1  1  1  1
TYPE ASSIGNMENTS      1  1  1  1  1  1  1  1  1  1  1  1  1  1  1  1  1  1  1  1
TYPE ASSIGNMENTS      1  1  1  1  1  1  1  1  1  1  2  3  4  2  3  4  2  3  4  2
TYPE ASSIGNMENTS      3  4  2  3  4  2  3  4  2  3  4  2  3  4  2  3  4  2  3  4
TYPE ASSIGNMENTS      2  3  4  2  3  4  2  3  4  2  3  4  2  3  4  2  3  4  2  3
TYPE ASSIGNMENTS      4  2  3  4  2  3  4  2  3  4  2  3  4  2  3  4  2  3  4  2
TYPE ASSIGNMENTS      3  4  2  3  4  2  3  4  2  3  4  2  3  4  2  3  4  2  3  4
TYPE ASSIGNMENTS      2  3  4  2  3  4  2  3  4  2  3  4  5  8  9  6 10  7  5  8
TYPE ASSIGNMENTS      9  6 10  7  5  8  9  6 10  7  5  8  9  6 10  7  5  8  9  6
TYPE ASSIGNMENTS     10  7  5  8  9  6 10  7  5  8  9  6 10  7  5  8  9  6 10  7
TYPE ASSIGNMENTS      5  8  9  6 10  7  5  8  9  6 10  7  5  8  9  6 10  7  5  8
TYPE ASSIGNMENTS      9  6 10  7  5  8  9  6 10  7  5  8  9  6 10  7  5  8  9  6
TYPE ASSIGNMENTS     10  7  5  8  9  6 10  7  5  8  9  6 10  7  5  8  9  6 10  7
TYPE ASSIGNMENTS      5  8  9  6 10  7  5  8  9  6 10  7 11 14 15 17 20 18 12 16
TYPE ASSIGNMENTS     19 13 11 14 15 17 20 18 12 16 19 13 11 14 15 17 20 18 12 16
TYPE ASSIGNMENTS     19 13 11 14 15 17 20 18 12 16 19 13 11 14 15 17 20 18 12 16
TYPE ASSIGNMENTS     19 13 11 14 15 17 20 18 12 16 19 13 11 14 15 17 20 18 12 16
TYPE ASSIGNMENTS     19 13 11 14 15 17 20 18 12 16 19 13 11 14 15 17 20 18 12 16
TYPE ASSIGNMENTS     19 13 11 14 15 17 20 18 12 16 19 13 11 14 15 17 20 18 12 16
TYPE ASSIGNMENTS     19 13 21 24 25 30 33 31 26 34 35 28 22 27 32 29 23 21 24 25
TYPE ASSIGNMENTS     30 33 31 26 34 35 28 22 27 32 29 23 21 24 25 30 33 31 26 34
TYPE ASSIGNMENTS     35 28 22 27 32 29 23 21 24 25 30 33 31 26 34 35 28 22 27 32
TYPE ASSIGNMENTS     29 23 21 24 25 30 33 31 26 34 35 28 22 27 32 29 23
EXPONENTS  7.3626615E+07 2.0055076E+07 5.9594340E+06 1.8388587E+06 6.1121226E+05
EXPONENTS  2.1509497E+05 8.0752001E+04 3.2083857E+04 1.3521396E+04 6.1158297E+03
EXPONENTS  2.8306394E+03 1.1700657E+03 5.9043218E+04 1.4145733E+04 4.4149544E+03
EXPONENTS  1.6382845E+03 6.4337035E+02 4.2557721E+02 1.5627719E+02 7.9070596E+01
EXPONENTS  4.2881180E+01 2.1597837E+01 1.1209882E+01 5.4718352E+00 2.7127010E+00
EXPONENTS  1.2097962E+00 5.6897308E-01 2.4526996E-01 8.4375424E-02 3.1385311E-02
EXPONENTS  2.1330000E+02 2.1330000E+02 2.1330000E+02 5.3463960E+06 5.3463960E+06
EXPONENTS  5.3463960E+06 1.4450319E+06 1.4450319E+06 1.4450319E+06 4.1614742E+05
EXPONENTS  4.1614742E+05 4.1614742E+05 1.2769398E+05 1.2769398E+05 1.2769398E+05
EXPONENTS  4.1749100E+04 4.1749100E+04 4.1749100E+04 1.4543778E+04 1.4543778E+04
EXPONENTS  1.4543778E+04 5.3983475E+03 5.3983475E+03 5.3983475E+03 2.1355142E+03
EXPONENTS  2.1355142E+03 2.1355142E+03 8.8410446E+02 8.8410446E+02 8.8410446E+02
EXPONENTS  3.9395923E+02 3.9395923E+02 3.9395923E+02 1.8776936E+02 1.8776936E+02
EXPONENTS  1.8776936E+02 9.3585455E+01 9.3585455E+01 9.3585455E+01 4.6544358E+01
EXPONENTS  4.6544358E+01 4.6544358E+01 1.4345201E+03 1.4345201E+03 1.4345201E+03
EXPONENTS  4.9564043E+02 4.9564043E+02 4.9564043E+02 2.1801142E+02 2.1801142E+02
EXPONENTS  2.1801142E+02 5.4472152E+01 5.4472152E+01 5.4472152E+01 2.8315197E+01
EXPONENTS  2.8315197E+01 2.8315197E+01 1.4557666E+01 1.4557666E+01 1.4557666E+01
EXPONENTS  6.4817935E+00 6.4817935E+00 6.4817935E+00 7.9154648E+01 7.9154648E+01
EXPONENTS  7.9154648E+01 2.9158804E+01 2.9158804E+01 2.9158804E+01 8.7413641E+00
EXPONENTS  8.7413641E+00 8.7413641E+00 4.7137887E+00 4.7137887E+00 4.7137887E+00
EXPONENTS  2.3498282E+00 2.3498282E+00 2.3498282E+00 4.2892311E+00 4.2892311E+00
EXPONENTS  4.2892311E+00 1.3889626E+00 1.3889626E+00 1.3889626E+00 7.4680069E-01
EXPONENTS  7.4680069E-01 7.4680069E-01 8.6076041E-01 8.6076041E-01 8.6076041E-01
EXPONENTS  3.5087514E-01 3.5087514E-01 3.5087514E-01 1.4950759E-01 1.4950759E-01
EXPONENTS  1.4950759E-01 7.8621709E-02 7.8621709E-02 7.8621709E-02 2.3872672E-02
EXPONENTS  2.3872672E-02 2.3872672E-02 4.9572496E+03 4.9572496E+03 4.9572496E+03
EXPONENTS  4.9572496E+03 4.9572496E+03 4.9572496E+03 1.4180640E+03 1.4180640E+03
EXPONENTS  1.4180640E+03 1.4180640E+03 1.4180640E+03 1.4180640E+03 5.4982575E+02
EXPONENTS  5.4982575E+02 5.4982575E+02 5.4982575E+02 5.4982575E+02 5.4982575E+02
EXPONENTS  2.4304192E+02 2.4304192E+02 2.4304192E+02 2.4304192E+02 2.4304192E+02
EXPONENTS  2.4304192E+02 1.1690420E+02 1.1690420E+02 1.1690420E+02 1.1690420E+02
EXPONENTS  1.1690420E+02 1.1690420E+02 5.8538480E+01 5.8538480E+01 5.8538480E+01
EXPONENTS  5.8538480E+01 5.8538480E+01 5.8538480E+01 2.9530559E+01 2.9530559E+01
EXPONENTS  2.9530559E+01 2.9530559E+01 2.9530559E+01 2.9530559E+01 1.4922436E+01
EXPONENTS  1.4922436E+01 1.4922436E+01 1.4922436E+01 1.4922436E+01 1.4922436E+01
EXPONENTS  3.0000000E+01 3.0000000E+01 3.0000000E+01 3.0000000E+01 3.0000000E+01
EXPONENTS  3.0000000E+01 2.5423526E+02 2.5423526E+02 2.5423526E+02 2.5423526E+02
EXPONENTS  2.5423526E+02 2.5423526E+02 9.4027784E+01 9.4027784E+01 9.4027784E+01
EXPONENTS  9.4027784E+01 9.4027784E+01 9.4027784E+01 1.8629213E+01 1.8629213E+01
EXPONENTS  1.8629213E+01 1.8629213E+01 1.8629213E+01 1.8629213E+01 7.0460254E+00
EXPONENTS  7.0460254E+00 7.0460254E+00 7.0460254E+00 7.0460254E+00 7.0460254E+00
EXPONENTS  1.1020611E+01 1.1020611E+01 1.1020611E+01 1.1020611E+01 1.1020611E+01
EXPONENTS  1.1020611E+01 3.9647994E+00 3.9647994E+00 3.9647994E+00 3.9647994E+00
EXPONENTS  3.9647994E+00 3.9647994E+00 2.0002983E+00 2.0002983E+00 2.0002983E+00
EXPONENTS  2.0002983E+00 2.0002983E+00 2.0002983E+00 8.7094668E-01 8.7094668E-01
EXPONENTS  8.7094668E-01 8.7094668E-01 8.7094668E-01 8.7094668E-01 3.5355131E-01
EXPONENTS  3.5355131E-01 3.5355131E-01 3.5355131E-01 3.5355131E-01 3.5355131E-01
EXPONENTS  1.3670795E-01 1.3670795E-01 1.3670795E-01 1.3670795E-01 1.3670795E-01
EXPONENTS  1.3670795E-01 4.9608658E-02 4.9608658E-02 4.9608658E-02 4.9608658E-02
EXPONENTS  4.9608658E-02 4.9608658E-02 2.5238516E+02 2.5238516E+02 2.5238516E+02
EXPONENTS  2.5238516E+02 2.5238516E+02 2.5238516E+02 2.5238516E+02 2.5238516E+02
EXPONENTS  2.5238516E+02 2.5238516E+02 1.0015722E+02 1.0015722E+02 1.0015722E+02
EXPONENTS  1.0015722E+02 1.0015722E+02 1.0015722E+02 1.0015722E+02 1.0015722E+02
EXPONENTS  1.0015722E+02 1.0015722E+02 5.0412806E+01 5.0412806E+01 5.0412806E+01
EXPONENTS  5.0412806E+01 5.0412806E+01 5.0412806E+01 5.0412806E+01 5.0412806E+01
EXPONENTS  5.0412806E+01 5.0412806E+01 2.5482670E+01 2.5482670E+01 2.5482670E+01
EXPONENTS  2.5482670E+01 2.5482670E+01 2.5482670E+01 2.5482670E+01 2.5482670E+01
EXPONENTS  2.5482670E+01 2.5482670E+01 1.2826918E+01 1.2826918E+01 1.2826918E+01
EXPONENTS  1.2826918E+01 1.2826918E+01 1.2826918E+01 1.2826918E+01 1.2826918E+01
EXPONENTS  1.2826918E+01 1.2826918E+01 6.4635802E+00 6.4635802E+00 6.4635802E+00
EXPONENTS  6.4635802E+00 6.4635802E+00 6.4635802E+00 6.4635802E+00 6.4635802E+00
EXPONENTS  6.4635802E+00 6.4635802E+00 3.2184404E+00 3.2184404E+00 3.2184404E+00
EXPONENTS  3.2184404E+00 3.2184404E+00 3.2184404E+00 3.2184404E+00 3.2184404E+00
EXPONENTS  3.2184404E+00 3.2184404E+00 1.5462312E+00 1.5462312E+00 1.5462312E+00
EXPONENTS  1.5462312E+00 1.5462312E+00 1.5462312E+00 1.5462312E+00 1.5462312E+00
EXPONENTS  1.5462312E+00 1.5462312E+00 7.0164220E-01 7.0164220E-01 7.0164220E-01
EXPONENTS  7.0164220E-01 7.0164220E-01 7.0164220E-01 7.0164220E-01 7.0164220E-01
EXPONENTS  7.0164220E-01 7.0164220E-01 2.8586063E-01 2.8586063E-01 2.8586063E-01
EXPONENTS  2.8586063E-01 2.8586063E-01 2.8586063E-01 2.8586063E-01 2.8586063E-01
EXPONENTS  2.8586063E-01 2.8586063E-01 9.5000000E-02 9.5000000E-02 9.5000000E-02
EXPONENTS  9.5000000E-02 9.5000000E-02 9.5000000E-02 9.5000000E-02 9.5000000E-02
EXPONENTS  9.5000000E-02 9.5000000E-02 2.2275400E+01 2.2275400E+01 2.2275400E+01
EXPONENTS  2.2275400E+01 2.2275400E+01 2.2275400E+01 2.2275400E+01 2.2275400E+01
EXPONENTS  2.2275400E+01 2.2275400E+01 2.2275400E+01 2.2275400E+01 2.2275400E+01
EXPONENTS  2.2275400E+01 2.2275400E+01 1.0212300E+01 1.0212300E+01 1.0212300E+01
EXPONENTS  1.0212300E+01 1.0212300E+01 1.0212300E+01 1.0212300E+01 1.0212300E+01
EXPONENTS  1.0212300E+01 1.0212300E+01 1.0212300E+01 1.0212300E+01 1.0212300E+01
EXPONENTS  1.0212300E+01 1.0212300E+01 4.6589000E+00 4.6589000E+00 4.6589000E+00
EXPONENTS  4.6589000E+00 4.6589000E+00 4.6589000E+00 4.6589000E+00 4.6589000E+00
EXPONENTS  4.6589000E+00 4.6589000E+00 4.6589000E+00 4.6589000E+00 4.6589000E+00
EXPONENTS  4.6589000E+00 4.6589000E+00 2.0551000E+00 2.0551000E+00 2.0551000E+00
EXPONENTS  2.0551000E+00 2.0551000E+00 2.0551000E+00 2.0551000E+00 2.0551000E+00
EXPONENTS  2.0551000E+00 2.0551000E+00 2.0551000E+00 2.0551000E+00 2.0551000E+00
EXPONENTS  2.0551000E+00 2.0551000E+00 5.0184000E-01 5.0184000E-01 5.0184000E-01
EXPONENTS  5.0184000E-01 5.0184000E-01 5.0184000E-01 5.0184000E-01 5.0184000E-01
EXPONENTS  5.0184000E-01 5.0184000E-01 5.0184000E-01 5.0184000E-01 5.0184000E-01
EXPONENTS  5.0184000E-01 5.0184000E-01
MO    1                     OCC NO =   1.00000000 ORB. ENERGY = -2107.92317754
  1.23699046E+02  1.26126594E+02  1.13159283E+02  9.69893728E+01  8.46649932E+01
  7.68864952E+01  7.03032467E+01  6.81949993E+01  6.53652834E+01  5.82705825E+01
  5.34717284E+01  3.50491198E+01  2.66771626E+00  6.02849645E+00  1.33778698E+01
  2.18088300E+01  1.50436044E+01  9.18296109E+00  1.15578109E+00 -3.92248049E-01
  1.77559264E-01 -6.77515918E-02  2.61500882E-02 -8.77711779E-03  2.86875964E-03
 -8.02818481E-04  2.37675442E-04 -4.97804977E-05  7.41312131E-06 -1.02421382E-06
  0.00000000E+00  0.00000000E+00  0.00000000E+00  0.00000000E+00  0.00000000E+00
  0.00000000E+00  0.00000000E+00  0.00000000E+00  0.00000000E+00  0.00000000E+00
  0.00000000E+00  0.00000000E+00  0.00000000E+00  0.00000000E+00  0.00000000E+00
  0.00000000E+00  0.00000000E+00  0.00000000E+00  0.00000000E+00  0.00000000E+00
  0.00000000E+00  0.00000000E+00  0.00000000E+00  0.00000000E+00  0.00000000E+00
  0.00000000E+00  0.00000000E+00  0.00000000E+00  0.00000000E+00  0.00000000E+00
  0.00000000E+00  0.00000000E+00  0.00000000E+00  0.00000000E+00  0.00000000E+00
  0.00000000E+00  0.00000000E+00  0.00000000E+00  0.00000000E+00  0.00000000E+00
  0.00000000E+00  0.00000000E+00  0.00000000E+00  0.00000000E+00  0.00000000E+00
  0.00000000E+00  0.00000000E+00  0.00000000E+00  0.00000000E+00  0.00000000E+00
  0.00000000E+00  0.00000000E+00  0.00000000E+00  0.00000000E+00  0.00000000E+00
  0.00000000E+00  0.00000000E+00  0.00000000E+00  0.00000000E+00  0.00000000E+00
  0.00000000E+00  0.00000000E+00  0.00000000E+00  0.00000000E+00  0.00000000E+00
  0.00000000E+00  0.00000000E+00  0.00000000E+00  0.00000000E+00  0.00000000E+00
  0.00000000E+00  0.00000000E+00  0.00000000E+00  0.00000000E+00  0.00000000E+00
  0.00000000E+00  0.00000000E+00  0.00000000E+00  0.00000000E+00  0.00000000E+00
  0.00000000E+00  0.00000000E+00  0.00000000E+00  0.00000000E+00  0.00000000E+00
  0.00000000E+00  0.00000000E+00  0.00000000E+00  0.00000000E+00  0.00000000E+00
  0.00000000E+00  0.00000000E+00  0.00000000E+00  0.00000000E+00  0.00000000E+00
  0.00000000E+00  0.00000000E+00  0.00000000E+00  0.00000000E+00  0.00000000E+00
  0.00000000E+00  0.00000000E+00  0.00000000E+00  0.00000000E+00  0.00000000E+00
  0.00000000E+00  0.00000000E+00  0.00000000E+00  0.00000000E+00  0.00000000E+00
  0.00000000E+00  0.00000000E+00  0.00000000E+00  0.00000000E+00  0.00000000E+00
  0.00000000E+00  0.00000000E+00  0.00000000E+00  0.00000000E+00  0.00000000E+00
  0.00000000E+00  0.00000000E+00  0.00000000E+00  0.00000000E+00  0.00000000E+00
  0.00000000E+00  0.00000000E+00  0.00000000E+00  0.00000000E+00  0.00000000E+00
  0.00000000E+00  0.00000000E+00  0.00000000E+00  0.00000000E+00  0.00000000E+00
  0.00000000E+00  0.00000000E+00  0.00000000E+00  0.00000000E+00  0.00000000E+00
  0.00000000E+00  0.00000000E+00  0.00000000E+00  0.00000000E+00  0.00000000E+00
  0.00000000E+00  0.00000000E+00  0.00000000E+00  0.00000000E+00  0.00000000E+00
  0.00000000E+00  0.00000000E+00  0.00000000E+00  0.00000000E+00  0.00000000E+00
  0.00000000E+00  0.00000000E+00  0.00000000E+00  0.00000000E+00  0.00000000E+00
  0.00000000E+00  0.00000000E+00  0.00000000E+00  0.00000000E+00  0.00000000E+00
  0.00000000E+00  0.00000000E+00  0.00000000E+00  0.00000000E+00  0.00000000E+00
  0.00000000E+00  0.00000000E+00  0.00000000E+00  0.00000000E+00  0.00000000E+00
  0.00000000E+00  0.00000000E+00  0.00000000E+00  0.00000000E+00  0.00000000E+00
  0.00000000E+00  0.00000000E+00  0.00000000E+00  0.00000000E+00  0.00000000E+00
  0.00000000E+00  0.00000000E+00  0.00000000E+00  0.00000000E+00  0.00000000E+00
  0.00000000E+00  0.00000000E+00  0.00000000E+00  0.00000000E+00  0.00000000E+00
  0.00000000E+00  0.00000000E+00  0.00000000E+00  0.00000000E+00  0.00000000E+00
  0.00000000E+00  0.00000000E+00  0.00000000E+00  0.00000000E+00  0.00000000E+00
  0.00000000E+00  0.00000000E+00  0.00000000E+00  0.00000000E+00  0.00000000E+00
  0.00000000E+00  0.00000000E+00  0.00000000E+00  0.00000000E+00  0.00000000E+00
  0.00000000E+00  0.00000000E+00  0.00000000E+00  0.00000000E+00  0.00000000E+00
  0.00000000E+00  0.00000000E+00  0.00000000E+00  0.00000000E+00  0.00000000E+00
  0.00000000E+00  0.00000000E+00  0.00000000E+00  0.00000000E+00  0.00000000E+00
  0.00000000E+00  0.00000000E+00  0.00000000E+00  0.00000000E+00  0.00000000E+00
  0.00000000E+00  0.00000000E+00  0.00000000E+00  0.00000000E+00  0.00000000E+00
  0.00000000E+00  0.00000000E+00  0.00000000E+00  0.00000000E+00  0.00000000E+00
  0.00000000E+00  0.00000000E+00  0.00000000E+00  0.00000000E+00  0.00000000E+00
  0.00000000E+00  0.00000000E+00  0.00000000E+00  0.00000000E+00  0.00000000E+00
  0.00000000E+00  0.00000000E+00  0.00000000E+00  0.00000000E+00  0.00000000E+00
  0.00000000E+00  0.00000000E+00  0.00000000E+00  0.00000000E+00  0.00000000E+00
  0.00000000E+00  0.00000000E+00  0.00000000E+00  0.00000000E+00  0.00000000E+00
  0.00000000E+00  0.00000000E+00  0.00000000E+00  0.00000000E+00  0.00000000E+00
  0.00000000E+00  0.00000000E+00  0.00000000E+00  0.00000000E+00  0.00000000E+00
  0.00000000E+00  0.00000000E+00  0.00000000E+00  0.00000000E+00  0.00000000E+00
  0.00000000E+00  0.00000000E+00  0.00000000E+00  0.00000000E+00  0.00000000E+00
  0.00000000E+00  0.00000000E+00  0.00000000E+00  0.00000000E+00  0.00000000E+00
  0.00000000E+00  0.00000000E+00  0.00000000E+00  0.00000000E+00  0.00000000E+00
  0.00000000E+00  0.00000000E+00  0.00000000E+00  0.00000000E+00  0.00000000E+00
  0.00000000E+00  0.00000000E+00  0.00000000E+00  0.00000000E+00  0.00000000E+00
  0.00000000E+00  0.00000000E+00  0.00000000E+00  0.00000000E+00  0.00000000E+00
  0.00000000E+00  0.00000000E+00  0.00000000E+00  0.00000000E+00  0.00000000E+00
  0.00000000E+00  0.00000000E+00  0.00000000E+00  0.00000000E+00  0.00000000E+00
  0.00000000E+00  0.00000000E+00  0.00000000E+00  0.00000000E+00  0.00000000E+00
  0.00000000E+00  0.00000000E+00  0.00000000E+00  0.00000000E+00  0.00000000E+00
  0.00000000E+00  0.00000000E+00  0.00000000E+00  0.00000000E+00  0.00000000E+00
  0.00000000E+00  0.00000000E+00  0.00000000E+00  0.00000000E+00  0.00000000E+00
  0.00000000E+00  0.00000000E+00  0.00000000E+00  0.00000000E+00  0.00000000E+00
  0.00000000E+00  0.00000000E+00  0.00000000E+00  0.00000000E+00  0.00000000E+00
  0.00000000E+00  0.00000000E+00  0.00000000E+00  0.00000000E+00  0.00000000E+00
  0.00000000E+00  0.00000000E+00  0.00000000E+00  0.00000000E+00  0.00000000E+00
  0.00000000E+00  0.00000000E+00  0.00000000E+00  0.00000000E+00  0.00000000E+00
  0.00000000E+00  0.00000000E+00  0.00000000E+00  0.00000000E+00  0.00000000E+00
  0.00000000E+00  0.00000000E+00  0.00000000E+00  0.00000000E+00  0.00000000E+00
  0.00000000E+00  0.00000000E+00  0.00000000E+00  0.00000000E+00  0.00000000E+00
  0.00000000E+00  0.00000000E+00  0.00000000E+00  0.00000000E+00  0.00000000E+00
  0.00000000E+00  0.00000000E+00  0.00000000E+00  0.00000000E+00  0.00000000E+00
  0.00000000E+00  0.00000000E+00  0.00000000E+00  0.00000000E+00  0.00000000E+00
  0.00000000E+00  0.00000000E+00  0.00000000E+00  0.00000000E+00  0.00000000E+00
  0.00000000E+00  0.00000000E+00
MO    2                     OCC NO =   1.00000000 ORB. ENERGY = -355.30605454
 -4.65921803E+01 -4.75065348E+01 -4.26222988E+01 -3.65317801E+01 -3.18897094E+01
 -2.89598794E+01 -2.64802491E+01 -2.56861618E+01 -2.46203279E+01 -2.19480552E+01
 -2.01405305E+01 -1.32015158E+01 -2.11245136E+00 -4.77371064E+00 -1.05933676E+01
 -1.72694875E+01 -1.65804892E+01  2.40656549E+00  1.50067894E+01  9.25653761E+00
  1.76546564E+00  6.45117212E-02 -2.46586048E-03  1.19149063E-04 -1.58445597E-05
 -7.24695966E-06  4.09994513E-06 -8.71395461E-07  1.45132097E-07 -2.05659014E-08
  0.00000000E+00  0.00000000E+00  0.00000000E+00  0.00000000E+00  0.00000000E+00
  0.00000000E+00  0.00000000E+00  0.00000000E+00  0.00000000E+00  0.00000000E+00
  0.00000000E+00  0.00000000E+00  0.00000000E+00  0.00000000E+00  0.00000000E+00
  0.00000000E+00  0.00000000E+00  0.00000000E+00  0.00000000E+00  0.00000000E+00
  0.00000000E+00  0.00000000E+00  0.00000000E+00  0.00000000E+00  0.00000000E+00
  0.00000000E+00  0.00000000E+00  0.00000000E+00  0.00000000E+00  0.00000000E+00
  0.00000000E+00  0.00000000E+00  0.00000000E+00  0.00000000E+00  0.00000000E+00
  0.00000000E+00  0.00000000E+00  0.00000000E+00  0.00000000E+00  0.00000000E+00
  0.00000000E+00  0.00000000E+00  0.00000000E+00  0.00000000E+00  0.00000000E+00
  0.00000000E+00  0.00000000E+00  0.00000000E+00  0.00000000E+00  0.00000000E+00
  0.00000000E+00  0.00000000E+00  0.00000000E+00  0.00000000E+00  0.00000000E+00
  0.00000000E+00  0.00000000E+00  0.00000000E+00  0.00000000E+00  0.00000000E+00
  0.00000000E+00  0.00000000E+00  0.00000000E+00  0.00000000E+00  0.00000000E+00
  0.00000000E+00  0.00000000E+00  0.00000000E+00  0.00000000E+00  0.00000000E+00
  0.00000000E+00  0.00000000E+00  0.00000000E+00  0.00000000E+00  0.00000000E+00
  0.00000000E+00  0.00000000E+00  0.00000000E+00  0.00000000E+00  0.00000000E+00
  0.00000000E+00  0.00000000E+00  0.00000000E+00  0.00000000E+00  0.00000000E+00
  0.00000000E+00  0.00000000E+00  0.00000000E+00  0.00000000E+00  0.00000000E+00
  0.00000000E+00  0.00000000E+00  0.00000000E+00  0.00000000E+00  0.00000000E+00
  0.00000000E+00  0.00000000E+00  0.00000000E+00  0.00000000E+00  0.00000000E+00
  0.00000000E+00  0.00000000E+00  0.00000000E+00  0.00000000E+00  0.00000000E+00
  0.00000000E+00  0.00000000E+00  0.00000000E+00  0.00000000E+00  0.00000000E+00
  0.00000000E+00  0.00000000E+00  0.00000000E+00  0.00000000E+00  0.00000000E+00
  0.00000000E+00  0.00000000E+00  0.00000000E+00  0.00000000E+00  0.00000000E+00
  0.00000000E+00  0.00000000E+00  0.00000000E+00  0.00000000E+00  0.00000000E+00
  0.00000000E+00  0.00000000E+00  0.00000000E+00  0.00000000E+00  0.00000000E+00
  0.00000000E+00  0.00000000E+00  0.00000000E+00  0.00000000E+00  0.00000000E+00
  0.00000000E+00  0.00000000E+00  0.00000000E+00  0.00000000E+00  0.00000000E+00
  0.00000000E+00  0.00000000E+00  0.00000000E+00  0.00000000E+00  0.00000000E+00
  0.00000000E+00  0.00000000E+00  0.00000000E+00  0.00000000E+00  0.00000000E+00
  0.00000000E+00  0.00000000E+00  0.00000000E+00  0.00000000E+00  0.00000000E+00
  0.00000000E+00  0.00000000E+00  0.00000000E+00  0.00000000E+00  0.00000000E+00
  0.00000000E+00  0.00000000E+00  0.00000000E+00  0.00000000E+00  0.00000000E+00
  0.00000000E+00  0.00000000E+00  0.00000000E+00  0.00000000E+00  0.00000000E+00
  0.00000000E+00  0.00000000E+00  0.00000000E+00  0.00000000E+00  0.00000000E+00
  0.00000000E+00  0.00000000E+00  0.00000000E+00  0.00000000E+00  0.00000000E+00
  0.00000000E+00  0.00000000E+00  0.00000000E+00  0.00000000E+00  0.00000000E+00
  0.00000000E+00  0.00000000E+00  0.00000000E+00  0.00000000E+00  0.00000000E+00
  0.00000000E+00  0.00000000E+00  0.00000000E+00  0.00000000E+00  0.00000000E+00
  0.00000000E+00  0.00000000E+00  0.00000000E+00  0.00000000E+00  0.00000000E+00
  0.00000000E+00  0.00000000E+00  0.00000000E+00  0.00000000E+00  0.00000000E+00
  0.00000000E+00  0.00000000E+00  0.00000000E+00  0.00000000E+00  0.00000000E+00
  0.00000000E+00  0.00000000E+00  0.00000000E+00  0.00000000E+00  0.00000000E+00
  0.00000000E+00  0.00000000E+00  0.00000000E+00  0.00000000E+00  0.00000000E+00
  0.00000000E+00  0.00000000E+00  0.00000000E+00  0.00000000E+00  0.00000000E+00
  0.00000000E+00  0.00000000E+00  0.00000000E+00  0.00000000E+00  0.00000000E+00
  0.00000000E+00  0.00000000E+00  0.00000000E+00  0.00000000E+00  0.00000000E+00
  0.00000000E+00  0.00000000E+00  0.00000000E+00  0.00000000E+00  0.00000000E+00
  0.00000000E+00  0.00000000E+00  0.00000000E+00  0.00000000E+00  0.00000000E+00
  0.00000000E+00  0.00000000E+00  0.00000000E+00  0.00000000E+00  0.00000000E+00
  0.00000000E+00  0.00000000E+00  0.00000000E+00  0.00000000E+00  0.00000000E+00
  0.00000000E+00  0.00000000E+00  0.00000000E+00  0.00000000E+00  0.00000000E+00
  0.00000000E+00  0.00000000E+00  0.00000000E+00  0.00000000E+00  0.00000000E+00
  0.00000000E+00  0.00000000E+00  0.00000000E+00  0.00000000E+00  0.00000000E+00
  0.00000000E+00  0.00000000E+00  0.00000000E+00  0.00000000E+00  0.00000000E+00
  0.00000000E+00  0.00000000E+00  0.00000000E+00  0.00000000E+00  0.00000000E+00
  0.00000000E+00  0.00000000E+00  0.00000000E+00  0.00000000E+00  0.00000000E+00
  0.00000000E+00  0.00000000E+00  0.00000000E+00  0.00000000E+00  0.00000000E+00
  0.00000000E+00  0.00000000E+00  0.00000000E+00  0.00000000E+00  0.00000000E+00
  0.00000000E+00  0.00000000E+00  0.00000000E+00  0.00000000E+00  0.00000000E+00
  0.00000000E+00  0.00000000E+00  0.00000000E+00  0.00000000E+00  0.00000000E+00
  0.00000000E+00  0.00000000E+00  0.00000000E+00  0.00000000E+00  0.00000000E+00
  0.00000000E+00  0.00000000E+00  0.00000000E+00  0.00000000E+00  0.00000000E+00
  0.00000000E+00  0.00000000E+00  0.00000000E+00  0.00000000E+00  0.00000000E+00
  0.00000000E+00  0.00000000E+00  0.00000000E+00  0.00000000E+00  0.00000000E+00
  0.00000000E+00  0.00000000E+00  0.00000000E+00  0.00000000E+00  0.00000000E+00
  0.00000000E+00  0.00000000E+00  0.00000000E+00  0.00000000E+00  0.00000000E+00
  0.00000000E+00  0.00000000E+00  0.00000000E+00  0.00000000E+00  0.00000000E+00
  0.00000000E+00  0.00000000E+00  0.00000000E+00  0.00000000E+00  0.00000000E+00
  0.00000000E+00  0.00000000E+00  0.00000000E+00  0.00000000E+00  0.00000000E+00
  0.00000000E+00  0.00000000E+00  0.00000000E+00  0.00000000E+00  0.00000000E+00
  0.00000000E+00  0.00000000E+00  0.00000000E+00  0.00000000E+00  0.00000000E+00
  0.00000000E+00  0.00000000E+00  0.00000000E+00  0.00000000E+00  0.00000000E+00
  0.00000000E+00  0.00000000E+00  0.00000000E+00  0.00000000E+00  0.00000000E+00
  0.00000000E+00  0.00000000E+00  0.00000000E+00  0.00000000E+00  0.00000000E+00
  0.00000000E+00  0.00000000E+00  0.00000000E+00  0.00000000E+00  0.00000000E+00
  0.00000000E+00  0.00000000E+00  0.00000000E+00  0.00000000E+00  0.00000000E+00
  0.00000000E+00  0.00000000E+00  0.00000000E+00  0.00000000E+00  0.00000000E+00
  0.00000000E+00  0.00000000E+00  0.00000000E+00  0.00000000E+00  0.00000000E+00
  0.00000000E+00  0.00000000E+00  0.00000000E+00  0.00000000E+00  0.00000000E+00
  0.00000000E+00  0.00000000E+00  0.00000000E+00  0.00000000E+00  0.00000000E+00
  0.00000000E+00  0.00000000E+00
MO    3                     OCC NO =   1.00000000 ORB. ENERGY = -80.17236699
  2.18554945E+01  2.22844006E+01  1.99932996E+01  1.71363546E+01  1.49588486E+01
  1.35845217E+01  1.24213749E+01  1.20488838E+01  1.15489217E+01  1.02954100E+01
  9.44753502E+00  6.19257684E+00  1.09285033E+00  2.46961958E+00  5.48034645E+00
  8.93415368E+00  9.31874126E+00 -2.31301149E+00 -1.22829897E+01 -1.06849703E+01
  7.28577269E-01  5.96974375E+00  1.80223251E+00  6.04049905E-02  4.32713835E-04
 -7.76743917E-05  1.47646224E-05 -4.43251435E-06  5.31257613E-07 -7.11561524E-08
  0.00000000E+00  0.00000000E+00  0.00000000E+00  0.00000000E+00  0.00000000E+00
  0.00000000E+00  0.00000000E+00  0.00000000E+00  0.00000000E+00  0.00000000E+00
  0.00000000E+00  0.00000000E+00  0.00000000E+00  0.00000000E+00  0.00000000E+00
  0.00000000E+00  0.00000000E+00  0.00000000E+00  0.00000000E+00  0.00000000E+00
  0.00000000E+00  0.00000000E+00  0.00000000E+00  0.00000000E+00  0.00000000E+00
  0.00000000E+00  0.00000000E+00  0.00000000E+00  0.00000000E+00  0.00000000E+00
  0.00000000E+00  0.00000000E+00  0.00000000E+00  0.00000000E+00  0.00000000E+00
  0.00000000E+00  0.00000000E+00  0.00000000E+00  0.00000000E+00  0.00000000E+00
  0.00000000E+00  0.00000000E+00  0.00000000E+00  0.00000000E+00  0.00000000E+00
  0.00000000E+00  0.00000000E+00  0.00000000E+00  0.00000000E+00  0.00000000E+00
  0.00000000E+00  0.00000000E+00  0.00000000E+00  0.00000000E+00  0.00000000E+00
  0.00000000E+00  0.00000000E+00  0.00000000E+00  0.00000000E+00  0.00000000E+00
  0.00000000E+00  0.00000000E+00  0.00000000E+00  0.00000000E+00  0.00000000E+00
  0.00000000E+00  0.00000000E+00  0.00000000E+00  0.00000000E+00  0.00000000E+00
  0.00000000E+00  0.00000000E+00  0.00000000E+00  0.00000000E+00  0.00000000E+00
  0.00000000E+00  0.00000000E+00  0.00000000E+00  0.00000000E+00  0.00000000E+00
  0.00000000E+00  0.00000000E+00  0.00000000E+00  0.00000000E+00  0.00000000E+00
  0.00000000E+00  0.00000000E+00  0.00000000E+00  0.00000000E+00  0.00000000E+00
  0.00000000E+00  0.00000000E+00  0.00000000E+00  0.00000000E+00  0.00000000E+00
  0.00000000E+00  0.00000000E+00  0.00000000E+00  0.00000000E+00  0.00000000E+00
  0.00000000E+00  0.00000000E+00  0.00000000E+00  0.00000000E+00  0.00000000E+00
  0.00000000E+00  0.00000000E+00  0.00000000E+00  0.00000000E+00  0.00000000E+00
  0.00000000E+00  0.00000000E+00  0.00000000E+00  0.00000000E+00  0.00000000E+00
  0.00000000E+00  0.00000000E+00  0.00000000E+00  0.00000000E+00  0.00000000E+00
  0.00000000E+00  0.00000000E+00  0.00000000E+00  0.00000000E+00  0.00000000E+00
  0.00000000E+00  0.00000000E+00  0.00000000E+00  0.00000000E+00  0.00000000E+00
  0.00000000E+00  0.00000000E+00  0.00000000E+00  0.00000000E+00  0.00000000E+00
  0.00000000E+00  0.00000000E+00  0.00000000E+00  0.00000000E+00  0.00000000E+00
  0.00000000E+00  0.00000000E+00  0.00000000E+00  0.00000000E+00  0.00000000E+00
  0.00000000E+00  0.00000000E+00  0.00000000E+00  0.00000000E+00  0.00000000E+00
  0.00000000E+00  0.00000000E+00  0.00000000E+00  0.00000000E+00  0.00000000E+00
  0.00000000E+00  0.00000000E+00  0.00000000E+00  0.00000000E+00  0.00000000E+00
  0.00000000E+00  0.00000000E+00  0.00000000E+00  0.00000000E+00  0.00000000E+00
  0.00000000E+00  0.00000000E+00  0.00000000E+00  0.00000000E+00  0.00000000E+00
  0.00000000E+00  0.00000000E+00  0.00000000E+00  0.00000000E+00  0.00000000E+00
  0.00000000E+00  0.00000000E+00  0.00000000E+00  0.00000000E+00  0.00000000E+00
  0.00000000E+00  0.00000000E+00  0.00000000E+00  0.00000000E+00  0.00000000E+00
  0.00000000E+00  0.00000000E+00  0.00000000E+00  0.00000000E+00  0.00000000E+00
  0.00000000E+00  0.00000000E+00  0.00000000E+00  0.00000000E+00  0.00000000E+00
  0.00000000E+00  0.00000000E+00  0.00000000E+00  0.00000000E+00  0.00000000E+00
  0.00000000E+00  0.00000000E+00  0.00000000E+00  0.00000000E+00  0.00000000E+00
  0.00000000E+00  0.00000000E+00  0.00000000E+00  0.00000000E+00  0.00000000E+00
  0.00000000E+00  0.00000000E+00  0.00000000E+00  0.00000000E+00  0.00000000E+00
  0.00000000E+00  0.00000000E+00  0.00000000E+00  0.00000000E+00  0.00000000E+00
  0.00000000E+00  0.00000000E+00  0.00000000E+00  0.00000000E+00  0.00000000E+00
  0.00000000E+00  0.00000000E+00  0.00000000E+00  0.00000000E+00  0.00000000E+00
  0.00000000E+00  0.00000000E+00  0.00000000E+00  0.00000000E+00  0.00000000E+00
  0.00000000E+00  0.00000000E+00  0.00000000E+00  0.00000000E+00  0.00000000E+00
  0.00000000E+00  0.00000000E+00  0.00000000E+00  0.00000000E+00  0.00000000E+00
  0.00000000E+00  0.00000000E+00  0.00000000E+00  0.00000000E+00  0.00000000E+00
  0.00000000E+00  0.00000000E+00  0.00000000E+00  0.00000000E+00  0.00000000E+00
  0.00000000E+00  0.00000000E+00  0.00000000E+00  0.00000000E+00  0.00000000E+00
  0.00000000E+00  0.00000000E+00  0.00000000E+00  0.00000000E+00  0.00000000E+00