atomref-proatoms Eu_q0_mult8_nist x2c-QZVPall
GAUSSIAN             63 MOL ORBITALS    437 PRIMITIVES        1 NUCLEI
  Eu   1    (CENTRE  1)   0.00000000  0.00000000  0.00000000  CHARGE = 63.0
CENTRE ASSIGNMENTS    1  1  1  1  1  1  1  1  1  1  1  1  1  1  1  1  1  1  1  1
CENTRE ASSIGNMENTS    1  1  1  1  1  1  1  1  1  1  1  1  1  1  1  1  1  1  1  1
CENTRE ASSIGNMENTS    1  1  1  1  1  1  1  1  1  1  1  1  1  1  1  1  1  1  1  1
CENTRE ASSIGNMENTS    1  1  1  1  1  1  1  1  1  1  1  1  1  1  1  1  1  1  1  1
CENTRE ASSIGNMENTS    1  1  1  1  1  1  1  1  1  1  1  1  1  1  1  1  1  1  1  1
CENTRE ASSIGNMENTS    1  1  1  1  1  1  1  1  1  1  1  1  1  1  1  1  1  1  1  1
CENTRE ASSIGNMENTS    1  1  1  1  1  1  1  1  1  1  1  1  1  1  1  1  1  1  1  1
CENTRE ASSIGNMENTS    1  1  1  1  1  1  1  1  1  1  1  1  1  1  1  1  1  1  1  1
CENTRE ASSIGNMENTS    1  1  1  1  1  1  1  1  1  1  1  1  1  1  1  1  1  1  1  1
CENTRE ASSIGNMENTS    1  1  1  1  1  1  1  1  1  1  1  1  1  1  1  1  1  1  1  1
CENTRE ASSIGNMENTS    1  1  1  1  1  1  1  1  1  1  1  1  1  1  1  1  1  1  1  1
CENTRE ASSIGNMENTS    1  1  1  1  1  1  1  1  1  1  1  1  1  1  1  1  1  1  1  1
CENTRE ASSIGNMENTS    1  1  1  1  1  1  1  1  1  1  1  1  1  1  1  1  1  1  1  1
CENTRE ASSIGNMENTS    1  1  1  1  1  1  1  1  1  1  1  1  1  1  1  1  1  1  1  1
CENTRE ASSIGNMENTS    1  1  1  1  1  1  1  1  1  1  1  1  1  1  1  1  1  1  1  1
CENTRE ASSIGNMENTS    1  1  1  1  1  1  1  1  1  1  1  1  1  1  1  1  1  1  1  1
CENTRE ASSIGNMENTS    1  1  1  1  1  1  1  1  1  1  1  1  1  1  1  1  1  1  1  1
CENTRE ASSIGNMENTS    1  1  1  1  1  1  1  1  1  1  1  1  1  1  1  1  1  1  1  1
CENTRE ASSIGNMENTS    1  1  1  1  1  1  1  1  1  1  1  1  1  1  1  1  1  1  1  1
CENTRE ASSIGNMENTS    1  1  1  1  1  1  1  1  1  1  1  1  1  1  1  1  1  1  1  1
CENTRE ASSIGNMENTS    1  1  1  1  1  1  1  1  1  1  1  1  1  1  1  1  1  1  1  1
CENTRE ASSIGNMENTS    1  1  1  1  1  1  1  1  1  1  1  1  1  1  1  1  1
TYPE ASSIGNMENTS      1  1  1  1  1  1  1  1  1  1  1  1  1  1  1  1  1  1  1  1
TYPE ASSIGNMENTS      1  1  1  1  1  1  1  1  1  1  2  3  4  2  3  4  2  3  4  2
TYPE ASSIGNMENTS      3  4  2  3  4  2  3  4  2  3  4  2  3  4  2  3  4  2  3  4
TYPE ASSIGNMENTS      2  3  4  2  3  4  2  3  4  2  3  4  2  3  4  2  3  4  2  3
TYPE ASSIGNMENTS      4  2  3  4  2  3  4  2  3  4  2  3  4  2  3  4  2  3  4  2
TYPE ASSIGNMENTS      3  4  2  3  4  2  3  4  2  3  4  2  3  4  2  3  4  2  3  4
TYPE ASSIGNMENTS      2  3  4  2  3  4  2  3  4  2  3  4  5  8  9  6 10  7  5  8
TYPE ASSIGNMENTS      9  6 10  7  5  8  9  6 10  7  5  8  9  6 10  7  5  8  9  6
TYPE ASSIGNMENTS     10  7  5  8  9  6 10  7  5  8  9  6 10  7  5  8  9  6 10  7
TYPE ASSIGNMENTS      5  8  9  6 10  7  5  8  9  6 10  7  5  8  9  6 10  7  5  8
TYPE ASSIGNMENTS      9  6 10  7  5  8  9  6 10  7  5  8  9  6 10  7  5  8  9  6
TYPE ASSIGNMENTS     10  7  5  8  9  6 10  7  5  8  9  6 10  7  5  8  9  6 10  7
TYPE ASSIGNMENTS      5  8  9  6 10  7  5  8  9  6 10  7 11 14 15 17 20 18 12 16
TYPE ASSIGNMENTS     19 13 11 14 15 17 20 18 12 16 19 13 11 14 15 17 20 18 12 16
TYPE ASSIGNMENTS     19 13 11 14 15 17 20 18 12 16 19 13 11 14 15 17 20 18 12 16
TYPE ASSIGNMENTS     19 13 11 14 15 17 20 18 12 16 19 13 11 14 15 17 20 18 12 16
TYPE ASSIGNMENTS     19 13 11 14 15 17 20 18 12 16 19 13 11 14 15 17 20 18 12 16
TYPE ASSIGNMENTS     19 13 11 14 15 17 20 18 12 16 19 13 11 14 15 17 20 18 12 16
TYPE ASSIGNMENTS     19 13 21 24 25 30 33 31 26 34 35 28 22 27 32 29 23 21 24 25
TYPE ASSIGNMENTS     30 33 31 26 34 35 28 22 27 32 29 23 21 24 25 30 33 31 26 34
TYPE ASSIGNMENTS     35 28 22 27 32 29 23 21 24 25 30 33 31 26 34 35 28 22 27 32
TYPE ASSIGNMENTS     29 23 21 24 25 30 33 31 26 34 35 28 22 27 32 29 23
EXPONENTS  6.9209516E+07 1.9021390E+07 5.7839871E+06 1.7919158E+06 6.0461194E+05
EXPONENTS  2.1575747E+05 8.1360321E+04 3.2112041E+04 1.3548765E+04 6.0838335E+03
EXPONENTS  2.8243915E+03 1.1364476E+03 5.7096687E+04 1.3500495E+04 4.2763370E+03
EXPONENTS  1.5767578E+03 6.3789590E+02 3.7221517E+02 1.3876685E+02 7.4764060E+01
EXPONENTS  4.4271384E+01 2.0331433E+01 1.0739612E+01 5.0149905E+00 2.5174052E+00
EXPONENTS  1.0302288E+00 5.1804165E-01 2.3071608E-01 7.0702877E-02 2.7249578E-02
EXPONENTS  1.8000000E+02 1.8000000E+02 1.8000000E+02 3.6409713E+06 3.6409713E+06
EXPONENTS  3.6409713E+06 1.0395246E+06 1.0395246E+06 1.0395246E+06 3.1341244E+05
EXPONENTS  3.1341244E+05 3.1341244E+05 9.9784160E+04 9.9784160E+04 9.9784160E+04
EXPONENTS  3.3548329E+04 3.3548329E+04 3.3548329E+04 1.1910887E+04 1.1910887E+04
EXPONENTS  1.1910887E+04 4.4656144E+03 4.4656144E+03 4.4656144E+03 1.7675139E+03
EXPONENTS  1.7675139E+03 1.7675139E+03 7.3059852E+02 7.3059852E+02 7.3059852E+02
EXPONENTS  3.2575725E+02 3.2575725E+02 3.2575725E+02 1.5571893E+02 1.5571893E+02
EXPONENTS  1.5571893E+02 7.7667060E+01 7.7667060E+01 7.7667060E+01 3.8395927E+01
EXPONENTS  3.8395927E+01 3.8395927E+01 1.1762687E+03 1.1762687E+03 1.1762687E+03
EXPONENTS  4.0783785E+02 4.0783785E+02 4.0783785E+02 1.7932624E+02 1.7932624E+02
EXPONENTS  1.7932624E+02 4.5126420E+01 4.5126420E+01 4.5126420E+01 2.3378910E+01
EXPONENTS  2.3378910E+01 2.3378910E+01 1.2028108E+01 1.2028108E+01 1.2028108E+01
EXPONENTS  5.3829892E+00 5.3829892E+00 5.3829892E+00 6.9864270E+01 6.9864270E+01
EXPONENTS  6.9864270E+01 2.3545416E+01 2.3545416E+01 2.3545416E+01 7.1672559E+00
EXPONENTS  7.1672559E+00 7.1672559E+00 3.9005425E+00 3.9005425E+00 3.9005425E+00
EXPONENTS  1.9384849E+00 1.9384849E+00 1.9384849E+00 3.4229636E+00 3.4229636E+00
EXPONENTS  3.4229636E+00 1.1310226E+00 1.1310226E+00 1.1310226E+00 6.1463159E-01
EXPONENTS  6.1463159E-01 6.1463159E-01 7.0706659E-01 7.0706659E-01 7.0706659E-01
EXPONENTS  2.9234920E-01 2.9234920E-01 2.9234920E-01 1.2419513E-01 1.2419513E-01
EXPONENTS  1.2419513E-01 6.5019830E-02 6.5019830E-02 6.5019830E-02 1.9728931E-02
EXPONENTS  1.9728931E-02 1.9728931E-02 4.1747820E+03 4.1747820E+03 4.1747820E+03
EXPONENTS  4.1747820E+03 4.1747820E+03 4.1747820E+03 1.1842889E+03 1.1842889E+03
EXPONENTS  1.1842889E+03 1.1842889E+03 1.1842889E+03 1.1842889E+03 4.5662516E+02
EXPONENTS  4.5662516E+02 4.5662516E+02 4.5662516E+02 4.5662516E+02 4.5662516E+02
EXPONENTS  2.0140409E+02 2.0140409E+02 2.0140409E+02 2.0140409E+02 2.0140409E+02
EXPONENTS  2.0140409E+02 9.6970675E+01 9.6970675E+01 9.6970675E+01 9.6970675E+01
EXPONENTS  9.6970675E+01 9.6970675E+01 4.8478883E+01 4.8478883E+01 4.8478883E+01
EXPONENTS  4.8478883E+01 4.8478883E+01 4.8478883E+01 2.4302388E+01 2.4302388E+01
EXPONENTS  2.4302388E+01 2.4302388E+01 2.4302388E+01 2.4302388E+01 1.2268672E+01
EXPONENTS  1.2268672E+01 1.2268672E+01 1.2268672E+01 1.2268672E+01 1.2268672E+01
EXPONENTS  2.5000000E+01 2.5000000E+01 2.5000000E+01 2.5000000E+01 2.5000000E+01
EXPONENTS  2.5000000E+01 2.1154974E+02 2.1154974E+02 2.1154974E+02 2.1154974E+02
EXPONENTS  2.1154974E+02 2.1154974E+02 8.2178102E+01 8.2178102E+01 8.2178102E+01
EXPONENTS  8.2178102E+01 8.2178102E+01 8.2178102E+01 1.4938279E+01 1.4938279E+01
EXPONENTS  1.4938279E+01 1.4938279E+01 1.4938279E+01 1.4938279E+01 5.6680302E+00
EXPONENTS  5.6680302E+00 5.6680302E+00 5.6680302E+00 5.6680302E+00 5.6680302E+00
EXPONENTS  8.8690721E+00 8.8690721E+00 8.8690721E+00 8.8690721E+00 8.8690721E+00
EXPONENTS  8.8690721E+00 3.1923834E+00 3.1923834E+00 3.1923834E+00 3.1923834E+00
EXPONENTS  3.1923834E+00 3.1923834E+00 1.6352231E+00 1.6352231E+00 1.6352231E+00
EXPONENTS  1.6352231E+00 1.6352231E+00 1.6352231E+00 7.2770805E-01 7.2770805E-01
EXPONENTS  7.2770805E-01 7.2770805E-01 7.2770805E-01 7.2770805E-01 2.8592248E-01
EXPONENTS  2.8592248E-01 2.8592248E-01 2.8592248E-01 2.8592248E-01 2.8592248E-01
EXPONENTS  1.0473513E-01 1.0473513E-01 1.0473513E-01 1.0473513E-01 1.0473513E-01
EXPONENTS  1.0473513E-01 3.0890738E-02 3.0890738E-02 3.0890738E-02 3.0890738E-02
EXPONENTS  3.0890738E-02 3.0890738E-02 2.0338936E+02 2.0338936E+02 2.0338936E+02
EXPONENTS  2.0338936E+02 2.0338936E+02 2.0338936E+02 2.0338936E+02 2.0338936E+02
EXPONENTS  2.0338936E+02 2.0338936E+02 7.9583484E+01 7.9583484E+01 7.9583484E+01
EXPONENTS  7.9583484E+01 7.9583484E+01 7.9583484E+01 7.9583484E+01 7.9583484E+01
EXPONENTS  7.9583484E+01 7.9583484E+01 3.9435980E+01 3.9435980E+01 3.9435980E+01
EXPONENTS  3.9435980E+01 3.9435980E+01 3.9435980E+01 3.9435980E+01 3.9435980E+01
EXPONENTS  3.9435980E+01 3.9435980E+01 1.9720221E+01 1.9720221E+01 1.9720221E+01
EXPONENTS  1.9720221E+01 1.9720221E+01 1.9720221E+01 1.9720221E+01 1.9720221E+01
EXPONENTS  1.9720221E+01 1.9720221E+01 9.8851129E+00 9.8851129E+00 9.8851129E+00
EXPONENTS  9.8851129E+00 9.8851129E+00 9.8851129E+00 9.8851129E+00 9.8851129E+00
EXPONENTS  9.8851129E+00 9.8851129E+00 4.9951670E+00 4.9951670E+00 4.9951670E+00
EXPONENTS  4.9951670E+00 4.9951670E+00 4.9951670E+00 4.9951670E+00 4.9951670E+00
EXPONENTS  4.9951670E+00 4.9951670E+00 2.5031167E+00 2.5031167E+00 2.5031167E+00
EXPONENTS  2.5031167E+00 2.5031167E+00 2.5031167E+00 2.5031167E+00 2.5031167E+00
EXPONENTS  2.5031167E+00 2.5031167E+00 1.2050733E+00 1.2050733E+00 1.2050733E+00
EXPONENTS  1.2050733E+00 1.2050733E+00 1.2050733E+00 1.2050733E+00 1.2050733E+00
EXPONENTS  1.2050733E+00 1.2050733E+00 5.4813883E-01 5.4813883E-01 5.4813883E-01
EXPONENTS  5.4813883E-01 5.4813883E-01 5.4813883E-01 5.4813883E-01 5.4813883E-01
EXPONENTS  5.4813883E-01 5.4813883E-01 2.2571105E-01 2.2571105E-01 2.2571105E-01
EXPONENTS  2.2571105E-01 2.2571105E-01 2.2571105E-01 2.2571105E-01 2.2571105E-01
EXPONENTS  2.2571105E-01 2.2571105E-01 7.5000000E-02 7.5000000E-02 7.5000000E-02
EXPONENTS  7.5000000E-02 7.5000000E-02 7.5000000E-02 7.5000000E-02 7.5000000E-02
EXPONENTS  7.5000000E-02 7.5000000E-02 2.0736600E+01 2.0736600E+01 2.0736600E+01
EXPONENTS  2.0736600E+01 2.0736600E+01 2.0736600E+01 2.0736600E+01 2.0736600E+01
EXPONENTS  2.0736600E+01 2.0736600E+01 2.0736600E+01 2.0736600E+01 2.0736600E+01
EXPONENTS  2.0736600E+01 2.0736600E+01 9.4479000E+00 9.4479000E+00 9.4479000E+00
EXPONENTS  9.4479000E+00 9.4479000E+00 9.4479000E+00 9.4479000E+00 9.4479000E+00
EXPONENTS  9.4479000E+00 9.4479000E+00 9.4479000E+00 9.4479000E+00 9.4479000E+00
EXPONENTS  9.4479000E+00 9.4479000E+00 4.3149000E+00 4.3149000E+00 4.3149000E+00
EXPONENTS  4.3149000E+00 4.3149000E+00 4.3149000E+00 4.3149000E+00 4.3149000E+00
EXPONENTS  4.3149000E+00 4.3149000E+00 4.3149000E+00 4.3149000E+00 4.3149000E+00
EXPONENTS  4.3149000E+00 4.3149000E+00 1.9121000E+00 1.9121000E+00 1.9121000E+00
EXPONENTS  1.9121000E+00 1.9121000E+00 1.9121000E+00 1.9121000E+00 1.9121000E+00
EXPONENTS  1.9121000E+00 1.9121000E+00 1.9121000E+00 1.9121000E+00 1.9121000E+00
EXPONENTS  1.9121000E+00 1.9121000E+00 4.7516000E-01 4.7516000E-01 4.7516000E-01
EXPONENTS  4.7516000E-01 4.7516000E-01 4.7516000E-01 4.7516000E-01 4.7516000E-01
EXPONENTS  4.7516000E-01 4.7516000E-01 4.7516000E-01 4.7516000E-01 4.7516000E-01
EXPONENTS  4.7516000E-01 4.7516000E-01
MO    1                     OCC NO =   1.00000000 ORB. ENERGY = -1777.85696672
  9.60981931E+01  8.87908326E+01  8.28818096E+01  7.17128365E+01  6.32639639E+01
  5.86930176E+01  5.52532610E+01  5.43584319E+01  5.32403273E+01  4.78422422E+01
  4.43373081E+01  2.76220809E+01  2.76838395E+00  6.45613238E+00  1.50771364E+01
  2.75629362E+01  2.00984766E+01  9.65850228E+00  1.29722090E+00 -5.14004980E-01
  2.18832296E-01 -6.04944082E-02  2.39300943E-02 -7.43940927E-03  2.46950321E-03
 -6.68446819E-04  2.41128703E-04 -4.79114623E-05  5.76801192E-06 -9.13260584E-07
  0.00000000E+00  0.00000000E+00  0.00000000E+00  0.00000000E+00  0.00000000E+00
  0.00000000E+00  0.00000000E+00  0.00000000E+00  0.00000000E+00  0.00000000E+00
  0.00000000E+00  0.00000000E+00  0.00000000E+00  0.00000000E+00  0.00000000E+00
  0.00000000E+00  0.00000000E+00  0.00000000E+00  0.00000000E+00  0.00000000E+00
  0.00000000E+00  0.00000000E+00  0.00000000E+00  0.00000000E+00  0.00000000E+00
  0.00000000E+00  0.00000000E+00  0.00000000E+00  0.00000000E+00  0.00000000E+00
  0.00000000E+00  0.00000000E+00  0.00000000E+00  0.00000000E+00  0.00000000E+00
  0.00000000E+00  0.00000000E+00  0.00000000E+00  0.00000000E+00  0.00000000E+00
  0.00000000E+00  0.00000000E+00  0.00000000E+00  0.00000000E+00  0.00000000E+00
  0.00000000E+00  0.00000000E+00  0.00000000E+00  0.00000000E+00  0.00000000E+00
  0.00000000E+00  0.00000000E+00  0.00000000E+00  0.00000000E+00  0.00000000E+00
  0.00000000E+00  0.00000000E+00  0.00000000E+00  0.00000000E+00  0.00000000E+00
  0.00000000E+00  0.00000000E+00  0.00000000E+00  0.00000000E+00  0.00000000E+00
  0.00000000E+00  0.00000000E+00  0.00000000E+00  0.00000000E+00  0.00000000E+00
  0.00000000E+00  0.00000000E+00  0.00000000E+00  0.00000000E+00  0.00000000E+00
  0.00000000E+00  0.00000000E+00  0.00000000E+00  0.00000000E+00  0.00000000E+00
  0.00000000E+00  0.00000000E+00  0.00000000E+00  0.00000000E+00  0.00000000E+00
  0.00000000E+00  0.00000000E+00  0.00000000E+00  0.00000000E+00  0.00000000E+00
  0.00000000E+00  0.00000000E+00  0.00000000E+00  0.00000000E+00  0.00000000E+00
  0.00000000E+00  0.00000000E+00  0.00000000E+00  0.00000000E+00  0.00000000E+00
  0.00000000E+00  0.00000000E+00  0.00000000E+00  0.00000000E+00  0.00000000E+00
  0.00000000E+00  0.00000000E+00  0.00000000E+00  0.00000000E+00  0.00000000E+00
  0.00000000E+00  0.00000000E+00  0.00000000E+00  0.00000000E+00  0.00000000E+00
  0.00000000E+00  0.00000000E+00  0.00000000E+00  0.00000000E+00  0.00000000E+00
  0.00000000E+00  0.00000000E+00  0.00000000E+00  0.00000000E+00  0.00000000E+00
  0.00000000E+00  0.00000000E+00  0.00000000E+00  0.00000000E+00  0.00000000E+00
  0.00000000E+00  0.00000000E+00  0.00000000E+00  0.00000000E+00  0.00000000E+00
  0.00000000E+00  0.00000000E+00  0.00000000E+00  0.00000000E+00  0.00000000E+00
  0.00000000E+00  0.00000000E+00  0.00000000E+00  0.00000000E+00  0.00000000E+00
  0.00000000E+00  0.00000000E+00  0.00000000E+00  0.00000000E+00  0.00000000E+00
  0.00000000E+00  0.00000000E+00  0.00000000E+00  0.00000000E+00  0.00000000E+00
  0.00000000E+00  0.00000000E+00  0.00000000E+00  0.00000000E+00  0.00000000E+00
  0.00000000E+00  0.00000000E+00  0.00000000E+00  0.00000000E+00  0.00000000E+00
  0.00000000E+00  0.00000000E+00  0.00000000E+00  0.00000000E+00  0.00000000E+00
  0.00000000E+00  0.00000000E+00  0.00000000E+00  0.00000000E+00  0.00000000E+00
  0.00000000E+00  0.00000000E+00  0.00000000E+00  0.00000000E+00  0.00000000E+00
  0.00000000E+00  0.00000000E+00  0.00000000E+00  0.00000000E+00  0.00000000E+00
  0.00000000E+00  0.00000000E+00  0.00000000E+00  0.00000000E+00  0.00000000E+00
  0.00000000E+00  0.00000000E+00  0.00000000E+00  0.00000000E+00  0.00000000E+00
  0.00000000E+00  0.00000000E+00  0.00000000E+00  0.00000000E+00  0.00000000E+00
  0.00000000E+00  0.00000000E+00  0.00000000E+00  0.00000000E+00  0.00000000E+00
  0.00000000E+00  0.00000000E+00  0.00000000E+00  0.00000000E+00  0.00000000E+00
  0.00000000E+00  0.00000000E+00  0.00000000E+00  0.00000000E+00  0.00000000E+00
  0.00000000E+00  0.00000000E+00  0.00000000E+00  0.00000000E+00  0.00000000E+00
  0.00000000E+00  0.00000000E+00  0.00000000E+00  0.00000000E+00  0.00000000E+00
  0.00000000E+00  0.00000000E+00  0.00000000E+00  0.00000000E+00  0.00000000E+00
  0.00000000E+00  0.00000000E+00  0.00000000E+00  0.00000000E+00  0.00000000E+00
  0.00000000E+00  0.00000000E+00  0.00000000E+00  0.00000000E+00  0.00000000E+00
  0.00000000E+00  0.00000000E+00  0.00000000E+00  0.00000000E+00  0.00000000E+00
  0.00000000E+00  0.00000000E+00  0.00000000E+00  0.00000000E+00  0.00000000E+00
  0.00000000E+00  0.00000000E+00  0.00000000E+00  0.00000000E+00  0.00000000E+00
  0.00000000E+00  0.00000000E+00  0.00000000E+00  0.00000000E+00  0.00000000E+00
  0.00000000E+00  0.00000000E+00  0.00000000E+00  0.00000000E+00  0.00000000E+00
  0.00000000E+00  0.00000000E+00  0.00000000E+00  0.00000000E+00  0.00000000E+00
  0.00000000E+00  0.00000000E+00  0.00000000E+00  0.00000000E+00  0.00000000E+00
  0.00000000E+00  0.00000000E+00  0.00000000E+00  0.00000000E+00  0.00000000E+00
  0.00000000E+00  0.00000000E+00  0.00000000E+00  0.00000000E+00  0.00000000E+00
  0.00000000E+00  0.00000000E+00  0.00000000E+00  0.00000000E+00  0.00000000E+00
  0.00000000E+00  0.00000000E+00  0.00000000E+00  0.00000000E+00  0.00000000E+00
  0.00000000E+00  0.00000000E+00  0.00000000E+00  0.00000000E+00  0.00000000E+00
  0.00000000E+00  0.00000000E+00  0.00000000E+00  0.00000000E+00  0.00000000E+00
  0.00000000E+00  0.00000000E+00  0.00000000E+00  0.00000000E+00  0.00000000E+00
  0.00000000E+00  0.00000000E+00  0.00000000E+00  0.00000000E+00  0.00000000E+00
  0.00000000E+00  0.00000000E+00  0.00000000E+00  0.00000000E+00  0.00000000E+00
  0.00000000E+00  0.00000000E+00  0.00000000E+00  0.00000000E+00  0.00000000E+00
  0.00000000E+00  0.00000000E+00  0.00000000E+00  0.00000000E+00  0.00000000E+00
  0.00000000E+00  0.00000000E+00  0.00000000E+00  0.00000000E+00  0.00000000E+00
  0.00000000E+00  0.00000000E+00  0.00000000E+00  0.00000000E+00  0.00000000E+00
  0.00000000E+00  0.00000000E+00  0.00000000E+00  0.00000000E+00  0.00000000E+00
  0.00000000E+00  0.00000000E+00  0.00000000E+00  0.00000000E+00  0.00000000E+00
  0.00000000E+00  0.00000000E+00  0.00000000E+00  0.00000000E+00  0.00000000E+00
  0.00000000E+00  0.00000000E+00  0.00000000E+00  0.00000000E+00  0.00000000E+00
  0.00000000E+00  0.00000000E+00  0.00000000E+00  0.00000000E+00  0.00000000E+00
  0.00000000E+00  0.00000000E+00  0.00000000E+00  0.00000000E+00  0.00000000E+00
  0.00000000E+00  0.00000000E+00  0.00000000E+00  0.00000000E+00  0.00000000E+00
  0.00000000E+00  0.00000000E+00  0.00000000E+00  0.00000000E+00  0.00000000E+00
  0.00000000E+00  0.00000000E+00  0.00000000E+00  0.00000000E+00  0.00000000E+00
  0.00000000E+00  0.00000000E+00  0.00000000E+00  0.00000000E+00  0.00000000E+00
  0.00000000E+00  0.00000000E+00  0.00000000E+00  0.00000000E+00  0.00000000E+00
  0.00000000E+00  0.00000000E+00  0.00000000E+00  0.00000000E+00  0.00000000E+00
  0.00000000E+00  0.00000000E+00  0.00000000E+00  0.00000000E+00  0.00000000E+00
  0.00000000E+00  0.00000000E+00
MO    2                     OCC NO =   1.00000000 ORB. ENERGY = -292.99844278
 -3.53754653E+01 -3.26854950E+01 -3.05102779E+01 -2.63987790E+01 -2.32885977E+01
 -2.16059505E+01 -2.03397145E+01 -2.00103119E+01 -1.95987176E+01 -1.76115858E+01
 -1.63213569E+01 -1.01681825E+01 -1.77764959E+00 -4.14564645E+00 -9.68141193E+00
 -1.76988609E+01 -1.64683331E+01 -1.70680810E+00  1.20352819E+01  8.08609376E+00
  3.02475905E+00  2.32639652E-01 -2.76735522E-02  5.93286286E-03 -1.75772156E-03
  4.36290306E-04 -1.52820710E-04  3.01360398E-05 -3.60097074E-06  5.69367132E-07
  0.00000000E+00  0.00000000E+00  0.00000000E+00  0.00000000E+00  0.00000000E+00
  0.00000000E+00  0.00000000E+00  0.00000000E+00  0.00000000E+00  0.00000000E+00
  0.00000000E+00  0.00000000E+00  0.00000000E+00  0.00000000E+00  0.00000000E+00
  0.00000000E+00  0.00000000E+00  0.00000000E+00  0.00000000E+00  0.00000000E+00
  0.00000000E+00  0.00000000E+00  0.00000000E+00  0.00000000E+00  0.00000000E+00
  0.00000000E+00  0.00000000E+00  0.00000000E+00  0.00000000E+00  0.00000000E+00
  0.00000000E+00  0.00000000E+00  0.00000000E+00  0.00000000E+00  0.00000000E+00
  0.00000000E+00  0.00000000E+00  0.00000000E+00  0.00000000E+00  0.00000000E+00
  0.00000000E+00  0.00000000E+00  0.00000000E+00  0.00000000E+00  0.00000000E+00
  0.00000000E+00  0.00000000E+00  0.00000000E+00  0.00000000E+00  0.00000000E+00
  0.00000000E+00  0.00000000E+00  0.00000000E+00  0.00000000E+00  0.00000000E+00
  0.00000000E+00  0.00000000E+00  0.00000000E+00  0.00000000E+00  0.00000000E+00
  0.00000000E+00  0.00000000E+00  0.00000000E+00  0.00000000E+00  0.00000000E+00
  0.00000000E+00  0.00000000E+00  0.00000000E+00  0.00000000E+00  0.00000000E+00
  0.00000000E+00  0.00000000E+00  0.00000000E+00  0.00000000E+00  0.00000000E+00
  0.00000000E+00  0.00000000E+00  0.00000000E+00  0.00000000E+00  0.00000000E+00
  0.00000000E+00  0.00000000E+00  0.00000000E+00  0.00000000E+00  0.00000000E+00
  0.00000000E+00  0.00000000E+00  0.00000000E+00  0.00000000E+00  0.00000000E+00
  0.00000000E+00  0.00000000E+00  0.00000000E+00  0.00000000E+00  0.00000000E+00
  0.00000000E+00  0.00000000E+00  0.00000000E+00  0.00000000E+00  0.00000000E+00
  0.00000000E+00  0.00000000E+00  0.00000000E+00  0.00000000E+00  0.00000000E+00
  0.00000000E+00  0.00000000E+00  0.00000000E+00  0.00000000E+00  0.00000000E+00
  0.00000000E+00  0.00000000E+00  0.00000000E+00  0.00000000E+00  0.00000000E+00
  0.00000000E+00  0.00000000E+00  0.00000000E+00  0.00000000E+00  0.00000000E+00
  0.00000000E+00  0.00000000E+00  0.00000000E+00  0.00000000E+00  0.00000000E+00
  0.00000000E+00  0.00000000E+00  0.00000000E+00  0.00000000E+00  0.00000000E+00
  0.00000000E+00  0.00000000E+00  0.00000000E+00  0.00000000E+00  0.00000000E+00
  0.00000000E+00  0.00000000E+00  0.00000000E+00  0.00000000E+00  0.00000000E+00
  0.00000000E+00  0.00000000E+00  0.00000000E+00  0.00000000E+00  0.00000000E+00
  0.00000000E+00  0.00000000E+00  0.00000000E+00  0.00000000E+00  0.00000000E+00
  0.00000000E+00  0.00000000E+00  0.00000000E+00  0.00000000E+00  0.00000000E+00
  0.00000000E+00  0.00000000E+00  0.00000000E+00  0.00000000E+00  0.00000000E+00
  0.00000000E+00  0.00000000E+00  0.00000000E+00  0.00000000E+00  0.00000000E+00
  0.00000000E+00  0.00000000E+00  0.00000000E+00  0.00000000E+00  0.00000000E+00
  0.00000000E+00  0.00000000E+00  0.00000000E+00  0.00000000E+00  0.00000000E+00
  0.00000000E+00  0.00000000E+00  0.00000000E+00  0.00000000E+00  0.00000000E+00
  0.00000000E+00  0.00000000E+00  0.00000000E+00  0.00000000E+00  0.00000000E+00
  0.00000000E+00  0.00000000E+00  0.00000000E+00  0.00000000E+00  0.00000000E+00
  0.00000000E+00  0.00000000E+00  0.00000000E+00  0.00000000E+00  0.00000000E+00
  0.00000000E+00  0.00000000E+00  0.00000000E+00  0.00000000E+00  0.00000000E+00
  0.00000000E+00  0.00000000E+00  0.00000000E+00  0.00000000E+00  0.00000000E+00
  0.00000000E+00  0.00000000E+00  0.00000000E+00  0.00000000E+00  0.00000000E+00
  0.00000000E+00  0.00000000E+00  0.00000000E+00  0.00000000E+00  0.00000000E+00
  0.00000000E+00  0.00000000E+00  0.00000000E+00  0.00000000E+00  0.00000000E+00
  0.00000000E+00  0.00000000E+00  0.00000000E+00  0.00000000E+00  0.00000000E+00
  0.00000000E+00  0.00000000E+00  0.00000000E+00  0.00000000E+00  0.00000000E+00
  0.00000000E+00  0.00000000E+00  0.00000000E+00  0.00000000E+00  0.00000000E+00
  0.00000000E+00  0.00000000E+00  0.00000000E+00  0.00000000E+00  0.00000000E+00
  0.00000000E+00  0.00000000E+00  0.00000000E+00  0.00000000E+00  0.00000000E+00
  0.00000000E+00  0.00000000E+00  0.00000000E+00  0.00000000E+00  0.00000000E+00
  0.00000000E+00  0.00000000E+00  0.00000000E+00  0.00000000E+00  0.00000000E+00
  0.00000000E+00  0.00000000E+00  0.00000000E+00  0.00000000E+00  0.00000000E+00
  0.00000000E+00  0.00000000E+00  0.00000000E+00  0.00000000E+00  0.00000000E+00
  0.00000000E+00  0.00000000E+00  0.00000000E+00  0.00000000E+00  0.00000000E+00
  0.00000000E+00  0.00000000E+00  0.00000000E+00  0.00000000E+00  0.00000000E+00
  0.00000000E+00  0.00000000E+00  0.00000000E+00  0.00000000E+00  0.00000000E+00
  0.00000000E+00  0.00000000E+00  0.00000000E+00  0.00000000E+00  0.00000000E+00
  0.00000000E+00  0.00000000E+00  0.00000000E+00  0.00000000E+00  0.00000000E+00
  0.00000000E+00  0.00000000E+00  0.00000000E+00  0.00000000E+00  0.00000000E+00
  0.00000000E+00  0.00000000E+00  0.00000000E+00  0.00000000E+00  0.00000000E+00
  0.00000000E+00  0.00000000E+00  0.00000000E+00  0.00000000E+00  0.00000000E+00
  0.00000000E+00  0.00000000E+00  0.00000000E+00  0.00000000E+00  0.00000000E+00
  0.00000000E+00  0.00000000E+00  0.00000000E+00  0.00000000E+00  0.00000000E+00
  0.00000000E+00  0.00000000E+00  0.00000000E+00  0.00000000E+00  0.00000000E+00
  0.00000000E+00  0.00000000E+00  0.00000000E+00  0.00000000E+00  0.00000000E+00
  0.00000000E+00  0.00000000E+00  0.00000000E+00  0.00000000E+00  0.00000000E+00
  0.00000000E+00  0.00000000E+00  0.00000000E+00  0.00000000E+00  0.00000000E+00
  0.00000000E+00  0.00000000E+00  0.00000000E+00  0.00000000E+00  0.00000000E+00
  0.00000000E+00  0.00000000E+00  0.00000000E+00  0.00000000E+00  0.00000000E+00
  0.00000000E+00  0.00000000E+00  0.00000000E+00  0.00000000E+00  0.00000000E+00
  0.00000000E+00  0.00000000E+00  0.00000000E+00  0.00000000E+00  0.00000000E+00
  0.00000000E+00  0.00000000E+00  0.00000000E+00  0.00000000E+00  0.00000000E+00
  0.00000000E+00  0.00000000E+00  0.00000000E+00  0.00000000E+00  0.00000000E+00
  0.00000000E+00  0.00000000E+00  0.00000000E+00  0.00000000E+00  0.00000000E+00
  0.00000000E+00  0.00000000E+00  0.00000000E+00  0.00000000E+00  0.00000000E+00
  0.00000000E+00  0.00000000E+00  0.00000000E+00  0.00000000E+00  0.00000000E+00
  0.00000000E+00  0.00000000E+00  0.00000000E+00  0.00000000E+00  0.00000000E+00
  0.00000000E+00  0.00000000E+00  0.00000000E+00  0.00000000E+00  0.00000000E+00
  0.00000000E+00  0.00000000E+00  0.00000000E+00  0.00000000E+00  0.00000000E+00
  0.00000000E+00  0.00000000E+00  0.00000000E+00  0.00000000E+00  0.00000000E+00
  0.00000000E+00  0.00000000E+00  0.00000000E+00  0.00000000E+00  0.00000000E+00
  0.00000000E+00  0.00000000E+00
MO    3                     OCC NO =   1.00000000 ORB. ENERGY = -64.96117604
  1.63756406E+01  1.51304277E+01  1.41234990E+01  1.22202468E+01  1.07805142E+01
  1.00016008E+01  9.41544806E+00  9.26296446E+00  9.07243350E+00  8.15257124E+00
  7.55531193E+00  4.70694876E+00  8.88323574E-01  2.07165433E+00  4.83797621E+00
  8.84444010E+00  8.77453754E+00  3.25828916E-01 -9.28830401E+00 -9.02488658E+00
 -1.99601862E+00  4.89627836E+00  2.43170963E+00  1.63924986E-01 -1.02919750E-02
  2.29174373E-03 -7.80747085E-04  1.48999972E-04 -1.78935742E-05  2.83092136E-06
  0.00000000E+00  0.00000000E+00  0.00000000E+00  0.00000000E+00  0.00000000E+00
  0.00000000E+00  0.00000000E+00  0.00000000E+00  0.00000000E+00  0.00000000E+00
  0.00000000E+00  0.00000000E+00  0.00000000E+00  0.00000000E+00  0.00000000E+00
  0.00000000E+00  0.00000000E+00  0.00000000E+00  0.00000000E+00  0.00000000E+00
  0.00000000E+00  0.00000000E+00  0.00000000E+00  0.00000000E+00  0.00000000E+00
  0.00000000E+00  0.00000000E+00  0.00000000E+00  0.00000000E+00  0.00000000E+00
  0.00000000E+00  0.00000000E+00  0.00000000E+00  0.00000000E+00  0.00000000E+00
  0.00000000E+00  0.00000000E+00  0.00000000E+00  0.00000000E+00  0.00000000E+00
  0.00000000E+00  0.00000000E+00  0.00000000E+00  0.00000000E+00  0.00000000E+00
  0.00000000E+00  0.00000000E+00  0.00000000E+00  0.00000000E+00  0.00000000E+00
  0.00000000E+00  0.00000000E+00  0.00000000E+00  0.00000000E+00  0.00000000E+00
  0.00000000E+00  0.00000000E+00  0.00000000E+00  0.00000000E+00  0.00000000E+00
  0.00000000E+00  0.00000000E+00  0.00000000E+00  0.00000000E+00  0.00000000E+00
  0.00000000E+00  0.00000000E+00  0.00000000E+00  0.00000000E+00  0.00000000E+00
  0.00000000E+00  0.00000000E+00  0.00000000E+00  0.00000000E+00  0.00000000E+00
  0.00000000E+00  0.00000000E+00  0.00000000E+00  0.00000000E+00  0.00000000E+00
  0.00000000E+00  0.00000000E+00  0.00000000E+00  0.00000000E+00  0.00000000E+00
  0.00000000E+00  0.00000000E+00  0.00000000E+00  0.00000000E+00  0.00000000E+00
  0.00000000E+00  0.00000000E+00  0.00000000E+00  0.00000000E+00  0.00000000E+00
  0.00000000E+00  0.00000000E+00  0.00000000E+00  0.00000000E+00  0.00000000E+00
  0.00000000E+00  0.00000000E+00  0.00000000E+00  0.00000000E+00  0.00000000E+00
  0.00000000E+00  0.00000000E+00  0.00000000E+00  0.00000000E+00  0.00000000E+00
  0.00000000E+00  0.00000000E+00  0.00000000E+00  0.00000000E+00  0.00000000E+00
  0.00000000E+00  0.00000000E+00  0.00000000E+00  0.00000000E+00  0.00000000E+00
  0.00000000E+00  0.00000000E+00  0.00000000E+00  0.00000000E+00  0.00000000E+00
  0.00000000E+00  0.00000000E+00  0.00000000E+00  0.00000000E+00  0.00000000E+00
  0.00000000E+00  0.00000000E+00  0.00000000E+00  0.00000000E+00  0.00000000E+00
  0.00000000E+00  0.00000000E+00  0.00000000E+00  0.00000000E+00  0.00000000E+00
  0.00000000E+00  0.00000000E+00  0.00000000E+00  0.00000000E+00  0.00000000E+00
  0.00000000E+00  0.00000000E+00  0.00000000E+00  0.00000000E+00  0.00000000E+00
  0.00000000E+00  0.00000000E+00  0.00000000E+00  0.00000000E+00  0.00000000E+00
  0.00000000E+00  0.00000000E+00  0.00000000E+00  0.00000000E+00  0.00000000E+00
  0.00000000E+00  0.00000000E+00  0.00000000E+00  0.00000000E+00  0.00000000E+00
  0.00000000E+00  0.00000000E+00  0.00000000E+00  0.00000000E+00  0.00000000E+00
  0.00000000E+00  0.00000000E+00  0.00000000E+00  0.00000000E+00  0.00000000E+00
  0.00000000E+00  0.00000000E+00  0.00000000E+00  0.00000000E+00  0.00000000E+00
  0.00000000E+00  0.00000000E+00  0.00000000E+00  0.00000000E+00  0.00000000E+00
  0.00000000E+00  0.00000000E+00  0.00000000E+00  0.00000000E+00  0.00000000E+00
  0.00000000E+00  0.00000000E+00  0.00000000E+00  0.00000000E+00  0.00000000E+00
  0.00000000E+00  0.00000000E+00  0.00000000E+00  0.00000000E+00  0.00000000E+00
  0.00000000E+00  0.00000000E+00  0.00000000E+00  0.00000000E+00  0.00000000E+00
  0.00000000E+00  0.00000000E+00  0.00000000E+00  0.00000000E+00  0.00000000E+00
  0.00000000E+00  0.00000000E+00  0.00000000E+00  0.00000000E+00  0.00000000E+00
  0.00000000E+00  0.00000000E+00  0.00000000E+00  0.00000000E+00  0.00000000E+00
  0.00000000E+00  0.00000000E+00  0.00000000E+00  0.00000000E+00  0.00000000E+00
  0.00000000E+00  0.00000000E+00  0.00000000E+00  0.00000000E+00  0.00000000E+00
  0.00000000E+00  0.00000000E+00  0.00000000E+00  0.00000000E+00  0.00000000E+00
  0.00000000E+00  0.00000000E+00  0.00000000E+00  0.00000000E+00  0.00000000E+00
  0.00000000E+00  0.00000000E+00  0.00000000E+00  0.00000000E+00  0.00000000E+00
  0.00000000E+00  0.00000000E+00  0.00000000E+00  0.00000000E+00  0.00000000E+00
  0.00000000E+00  0.00000000E+00  0.00000000E+00  0.00000000E+00  0.00000000E+00
  0.00000000E+00  0.00000000E+00  0.00000000E+00  0.00000000E+00  0.00000000E+00
  0.00000000E+00  0.00000000E+00  0.00000000E+00  0.00000000E+00  0.00000000E+00