atomref-proatoms Fe_q0_mult5_nist x2c-QZVPall
GAUSSIAN             30 MOL ORBITALS    199 PRIMITIVES        1 NUCLEI
  Fe   1    (CENTRE  1)   0.00000000  0.00000000  0.00000000  CHARGE = 26.0
CENTRE ASSIGNMENTS    1  1  1  1  1  1  1  1  1  1  1  1  1  1  1  1  1  1  1  1
CENTRE ASSIGNMENTS    1  1  1  1  1  1  1  1  1  1  1  1  1  1  1  1  1  1  1  1
CENTRE ASSIGNMENTS    1  1  1  1  1  1  1  1  1  1  1  1  1  1  1  1  1  1  1  1
CENTRE ASSIGNMENTS    1  1  1  1  1  1  1  1  1  1  1  1  1  1  1  1  1  1  1  1
CENTRE ASSIGNMENTS    1  1  1  1  1  1  1  1  1  1  1  1  1  1  1  1  1  1  1  1
CENTRE ASSIGNMENTS    1  1  1  1  1  1  1  1  1  1  1  1  1  1  1  1  1  1  1  1
CENTRE ASSIGNMENTS    1  1  1  1  1  1  1  1  1  1  1  1  1  1  1  1  1  1  1  1
CENTRE ASSIGNMENTS    1  1  1  1  1  1  1  1  1  1  1  1  1  1  1  1  1  1  1  1
CENTRE ASSIGNMENTS    1  1  1  1  1  1  1  1  1  1  1  1  1  1  1  1  1  1  1  1
CENTRE ASSIGNMENTS    1  1  1  1  1  1  1  1  1  1  1  1  1  1  1  1  1  1  1
TYPE ASSIGNMENTS      1  1  1  1  1  1  1  1  1  1  1  1  1  1  1  1  1  1  1  1
TYPE ASSIGNMENTS      1  1  1  1  2  3  4  2  3  4  2  3  4  2  3  4  2  3  4  2
TYPE ASSIGNMENTS      3  4  2  3  4  2  3  4  2  3  4  2  3  4  2  3  4  2  3  4
TYPE ASSIGNMENTS      2  3  4  2  3  4  2  3  4  2  3  4  2  3  4  2  3  4  2  3
TYPE ASSIGNMENTS      4  2  3  4  5  8  9  6 10  7  5  8  9  6 10  7  5  8  9  6
TYPE ASSIGNMENTS     10  7  5  8  9  6 10  7  5  8  9  6 10  7  5  8  9  6 10  7
TYPE ASSIGNMENTS      5  8  9  6 10  7  5  8  9  6 10  7  5  8  9  6 10  7  5  8
TYPE ASSIGNMENTS      9  6 10  7 11 14 15 17 20 18 12 16 19 13 11 14 15 17 20 18
TYPE ASSIGNMENTS     12 16 19 13 11 14 15 17 20 18 12 16 19 13 11 14 15 17 20 18
TYPE ASSIGNMENTS     12 16 19 13 21 24 25 30 33 31 26 34 35 28 22 27 32 29 23
EXPONENTS  6.9481754E+06 8.7252780E+05 1.7863973E+05 4.7884064E+04 1.5263741E+04
EXPONENTS  5.4454858E+03 2.1147406E+03 8.7253924E+02 3.7604652E+02 1.7024830E+02
EXPONENTS  7.9742418E+01 1.4714613E+03 4.4382265E+02 1.6972398E+02 7.3983282E+01
EXPONENTS  3.5493210E+01 1.6237532E+01 7.6906427E+00 3.2980922E+00 1.5819769E+00
EXPONENTS  6.9623862E-01 1.5245580E-01 7.2287897E-02 3.1891333E-02 2.9469458E+04
EXPONENTS  2.9469458E+04 2.9469458E+04 7.1779432E+03 7.1779432E+03 7.1779432E+03
EXPONENTS  2.0001101E+03 2.0001101E+03 2.0001101E+03 6.3757874E+02 6.3757874E+02
EXPONENTS  6.3757874E+02 2.3250900E+02 2.3250900E+02 2.3250900E+02 9.7872869E+01
EXPONENTS  9.7872869E+01 9.7872869E+01 4.4022191E+01 4.4022191E+01 4.4022191E+01
EXPONENTS  2.0612213E+01 2.0612213E+01 2.0612213E+01 9.8580802E+00 9.8580802E+00
EXPONENTS  9.8580802E+00 4.5655955E+00 4.5655955E+00 4.5655955E+00 1.5200000E+01
EXPONENTS  1.5200000E+01 1.5200000E+01 6.2429033E+01 6.2429033E+01 6.2429033E+01
EXPONENTS  2.2323391E+01 2.2323391E+01 2.2323391E+01 4.4506615E+00 4.4506615E+00
EXPONENTS  4.4506615E+00 2.0606786E+00 2.0606786E+00 2.0606786E+00 9.3386017E-01
EXPONENTS  9.3386017E-01 9.3386017E-01 3.9108779E-01 3.9108779E-01 3.9108779E-01
EXPONENTS  1.6000000E-01 1.6000000E-01 1.6000000E-01 6.7000000E-02 6.7000000E-02
EXPONENTS  6.7000000E-02 2.8000000E-02 2.8000000E-02 2.8000000E-02 2.2328341E+02
EXPONENTS  2.2328341E+02 2.2328341E+02 2.2328341E+02 2.2328341E+02 2.2328341E+02
EXPONENTS  6.6378760E+01 6.6378760E+01 6.6378760E+01 6.6378760E+01 6.6378760E+01
EXPONENTS  6.6378760E+01 2.5276584E+01 2.5276584E+01 2.5276584E+01 2.5276584E+01
EXPONENTS  2.5276584E+01 2.5276584E+01 1.0661981E+01 1.0661981E+01 1.0661981E+01
EXPONENTS  1.0661981E+01 1.0661981E+01 1.0661981E+01 4.8050987E+00 4.8050987E+00
EXPONENTS  4.8050987E+00 4.8050987E+00 4.8050987E+00 4.8050987E+00 2.1998397E+00
EXPONENTS  2.1998397E+00 2.1998397E+00 2.1998397E+00 2.1998397E+00 2.1998397E+00
EXPONENTS  9.8241081E-01 9.8241081E-01 9.8241081E-01 9.8241081E-01 9.8241081E-01
EXPONENTS  9.8241081E-01 4.1668323E-01 4.1668323E-01 4.1668323E-01 4.1668323E-01
EXPONENTS  4.1668323E-01 4.1668323E-01 1.6015232E-01 1.6015232E-01 1.6015232E-01
EXPONENTS  1.6015232E-01 1.6015232E-01 1.6015232E-01 6.2000000E-02 6.2000000E-02
EXPONENTS  6.2000000E-02 6.2000000E-02 6.2000000E-02 6.2000000E-02 5.1030000E+00
EXPONENTS  5.1030000E+00 5.1030000E+00 5.1030000E+00 5.1030000E+00 5.1030000E+00
EXPONENTS  5.1030000E+00 5.1030000E+00 5.1030000E+00 5.1030000E+00 1.5980000E+00
EXPONENTS  1.5980000E+00 1.5980000E+00 1.5980000E+00 1.5980000E+00 1.5980000E+00
EXPONENTS  1.5980000E+00 1.5980000E+00 1.5980000E+00 1.5980000E+00 5.0500000E-01
EXPONENTS  5.0500000E-01 5.0500000E-01 5.0500000E-01 5.0500000E-01 5.0500000E-01
EXPONENTS  5.0500000E-01 5.0500000E-01 5.0500000E-01 5.0500000E-01 1.5960000E-01
EXPONENTS  1.5960000E-01 1.5960000E-01 1.5960000E-01 1.5960000E-01 1.5960000E-01
EXPONENTS  1.5960000E-01 1.5960000E-01 1.5960000E-01 1.5960000E-01 1.1390000E+00
EXPONENTS  1.1390000E+00 1.1390000E+00 1.1390000E+00 1.1390000E+00 1.1390000E+00
EXPONENTS  1.1390000E+00 1.1390000E+00 1.1390000E+00 1.1390000E+00 1.1390000E+00
EXPONENTS  1.1390000E+00 1.1390000E+00 1.1390000E+00 1.1390000E+00
MO    1                     OCC NO =   1.00000000 ORB. ENERGY = -258.66841122
  8.42943571E+00  6.24690079E+00  5.68416216E+00  5.96080563E+00  6.94339998E+00
  8.68032371E+00  1.08716960E+01  1.33404068E+01  1.39816460E+01  1.05745575E+01
  4.42309409E+00  1.51618539E-01  5.39308378E-01  1.13010061E+00  1.07363415E+00
  8.96314691E-01 -3.39503369E-02  1.75765792E-02 -5.64556883E-03  1.86433208E-03
 -3.65033970E-04  4.55801263E-05 -2.01538048E-05  3.37711438E-06  0.00000000E+00
  0.00000000E+00  0.00000000E+00  0.00000000E+00  0.00000000E+00  0.00000000E+00
  0.00000000E+00  0.00000000E+00  0.00000000E+00  0.00000000E+00  0.00000000E+00
  0.00000000E+00  0.00000000E+00  0.00000000E+00  0.00000000E+00  0.00000000E+00
  0.00000000E+00  0.00000000E+00  0.00000000E+00  0.00000000E+00  0.00000000E+00
  0.00000000E+00  0.00000000E+00  0.00000000E+00  0.00000000E+00  0.00000000E+00
  0.00000000E+00  0.00000000E+00  0.00000000E+00  0.00000000E+00  0.00000000E+00
  0.00000000E+00  0.00000000E+00  0.00000000E+00  0.00000000E+00  0.00000000E+00
  0.00000000E+00  0.00000000E+00  0.00000000E+00  0.00000000E+00  0.00000000E+00
  0.00000000E+00  0.00000000E+00  0.00000000E+00  0.00000000E+00  0.00000000E+00
  0.00000000E+00  0.00000000E+00  0.00000000E+00  0.00000000E+00  0.00000000E+00
  0.00000000E+00  0.00000000E+00  0.00000000E+00  0.00000000E+00  0.00000000E+00
  0.00000000E+00  0.00000000E+00  0.00000000E+00  0.00000000E+00  0.00000000E+00
  0.00000000E+00  0.00000000E+00  0.00000000E+00  0.00000000E+00  0.00000000E+00
  0.00000000E+00  0.00000000E+00  0.00000000E+00  0.00000000E+00  0.00000000E+00
  0.00000000E+00  0.00000000E+00  0.00000000E+00  0.00000000E+00  0.00000000E+00
  0.00000000E+00  0.00000000E+00  0.00000000E+00  0.00000000E+00  0.00000000E+00
  0.00000000E+00  0.00000000E+00  0.00000000E+00  0.00000000E+00  0.00000000E+00
  0.00000000E+00  0.00000000E+00  0.00000000E+00  0.00000000E+00  0.00000000E+00
  0.00000000E+00  0.00000000E+00  0.00000000E+00  0.00000000E+00  0.00000000E+00
  0.00000000E+00  0.00000000E+00  0.00000000E+00  0.00000000E+00  0.00000000E+00
  0.00000000E+00  0.00000000E+00  0.00000000E+00  0.00000000E+00  0.00000000E+00
  0.00000000E+00  0.00000000E+00  0.00000000E+00  0.00000000E+00  0.00000000E+00
  0.00000000E+00  0.00000000E+00  0.00000000E+00  0.00000000E+00  0.00000000E+00
  0.00000000E+00  0.00000000E+00  0.00000000E+00  0.00000000E+00  0.00000000E+00
  0.00000000E+00  0.00000000E+00  0.00000000E+00  0.00000000E+00  0.00000000E+00
  0.00000000E+00  0.00000000E+00  0.00000000E+00  0.00000000E+00  0.00000000E+00
  0.00000000E+00  0.00000000E+00  0.00000000E+00  0.00000000E+00  0.00000000E+00
  0.00000000E+00  0.00000000E+00  0.00000000E+00  0.00000000E+00  0.00000000E+00
  0.00000000E+00  0.00000000E+00  0.00000000E+00  0.00000000E+00  0.00000000E+00
  0.00000000E+00  0.00000000E+00  0.00000000E+00  0.00000000E+00  0.00000000E+00
  0.00000000E+00  0.00000000E+00  0.00000000E+00  0.00000000E+00  0.00000000E+00
  0.00000000E+00  0.00000000E+00  0.00000000E+00  0.00000000E+00  0.00000000E+00
  0.00000000E+00  0.00000000E+00  0.00000000E+00  0.00000000E+00  0.00000000E+00
  0.00000000E+00  0.00000000E+00  0.00000000E+00  0.00000000E+00  0.00000000E+00
  0.00000000E+00  0.00000000E+00  0.00000000E+00  0.00000000E+00
MO    2                     OCC NO =   1.00000000 ORB. ENERGY = -30.74099292
 -2.63064429E+00 -1.94952242E+00 -1.77390388E+00 -1.86023831E+00 -2.16688472E+00
 -2.70894100E+00 -3.39282081E+00 -4.16325199E+00 -4.36336886E+00 -3.30009034E+00
 -1.38035185E+00 -3.10850697E-01 -1.10569846E+00 -2.31694992E+00 -2.20118149E+00
  3.56930696E-01  2.89935145E+00  1.69277882E+00  1.88483014E-01 -1.18664149E-02
  2.26162003E-03 -2.45372089E-04  1.08233260E-04 -1.81232140E-05  0.00000000E+00
  0.00000000E+00  0.00000000E+00  0.00000000E+00  0.00000000E+00  0.00000000E+00
  0.00000000E+00  0.00000000E+00  0.00000000E+00  0.00000000E+00  0.00000000E+00
  0.00000000E+00  0.00000000E+00  0.00000000E+00  0.00000000E+00  0.00000000E+00
  0.00000000E+00  0.00000000E+00  0.00000000E+00  0.00000000E+00  0.00000000E+00
  0.00000000E+00  0.00000000E+00  0.00000000E+00  0.00000000E+00  0.00000000E+00
  0.00000000E+00  0.00000000E+00  0.00000000E+00  0.00000000E+00  0.00000000E+00
  0.00000000E+00  0.00000000E+00  0.00000000E+00  0.00000000E+00  0.00000000E+00
  0.00000000E+00  0.00000000E+00  0.00000000E+00  0.00000000E+00  0.00000000E+00
  0.00000000E+00  0.00000000E+00  0.00000000E+00  0.00000000E+00  0.00000000E+00
  0.00000000E+00  0.00000000E+00  0.00000000E+00  0.00000000E+00  0.00000000E+00
  0.00000000E+00  0.00000000E+00  0.00000000E+00  0.00000000E+00  0.00000000E+00
  0.00000000E+00  0.00000000E+00  0.00000000E+00  0.00000000E+00  0.00000000E+00
  0.00000000E+00  0.00000000E+00  0.00000000E+00  0.00000000E+00  0.00000000E+00
  0.00000000E+00  0.00000000E+00  0.00000000E+00  0.00000000E+00  0.00000000E+00
  0.00000000E+00  0.00000000E+00  0.00000000E+00  0.00000000E+00  0.00000000E+00
  0.00000000E+00  0.00000000E+00  0.00000000E+00  0.00000000E+00  0.00000000E+00
  0.00000000E+00  0.00000000E+00  0.00000000E+00  0.00000000E+00  0.00000000E+00
  0.00000000E+00  0.00000000E+00  0.00000000E+00  0.00000000E+00  0.00000000E+00
  0.00000000E+00  0.00000000E+00  0.00000000E+00  0.00000000E+00  0.00000000E+00
  0.00000000E+00  0.00000000E+00  0.00000000E+00  0.00000000E+00  0.00000000E+00
  0.00000000E+00  0.00000000E+00  0.00000000E+00  0.00000000E+00  0.00000000E+00
  0.00000000E+00  0.00000000E+00  0.00000000E+00  0.00000000E+00  0.00000000E+00
  0.00000000E+00  0.00000000E+00  0.00000000E+00  0.00000000E+00  0.00000000E+00
  0.00000000E+00  0.00000000E+00  0.00000000E+00  0.00000000E+00  0.00000000E+00
  0.00000000E+00  0.00000000E+00  0.00000000E+00  0.00000000E+00  0.00000000E+00
  0.00000000E+00  0.00000000E+00  0.00000000E+00  0.00000000E+00  0.00000000E+00
  0.00000000E+00  0.00000000E+00  0.00000000E+00  0.00000000E+00  0.00000000E+00
  0.00000000E+00  0.00000000E+00  0.00000000E+00  0.00000000E+00  0.00000000E+00
  0.00000000E+00  0.00000000E+00  0.00000000E+00  0.00000000E+00  0.00000000E+00
  0.00000000E+00  0.00000000E+00  0.00000000E+00  0.00000000E+00  0.00000000E+00
  0.00000000E+00  0.00000000E+00  0.00000000E+00  0.00000000E+00  0.00000000E+00
  0.00000000E+00  0.00000000E+00  0.00000000E+00  0.00000000E+00  0.00000000E+00
  0.00000000E+00  0.00000000E+00  0.00000000E+00  0.00000000E+00  0.00000000E+00
  0.00000000E+00  0.00000000E+00  0.00000000E+00  0.00000000E+00  0.00000000E+00
  0.00000000E+00  0.00000000E+00  0.00000000E+00  0.00000000E+00
MO    3                     OCC NO =   1.00000000 ORB. ENERGY =  -3.76207992
  9.95485868E-01  7.37736388E-01  6.71278992E-01  7.03949584E-01  8.19990423E-01
  1.02511483E+00  1.28390797E+00  1.57545379E+00  1.65118183E+00  1.24881700E+00
  5.22351413E-01  1.36161450E-01  4.84327385E-01  1.01488999E+00  9.64180122E-01
 -1.68536146E-01 -1.75765507E+00 -1.52911832E+00  2.31467774E-01  7.32820024E-01
  2.12388054E-01  3.31736810E-03 -9.42991217E-04  1.34896438E-04  0.00000000E+00
  0.00000000E+00  0.00000000E+00  0.00000000E+00  0.00000000E+00  0.00000000E+00
  0.00000000E+00  0.00000000E+00  0.00000000E+00  0.00000000E+00  0.00000000E+00
  0.00000000E+00  0.00000000E+00  0.00000000E+00  0.00000000E+00  0.00000000E+00
  0.00000000E+00  0.00000000E+00  0.00000000E+00  0.00000000E+00  0.00000000E+00
  0.00000000E+00  0.00000000E+00  0.00000000E+00  0.00000000E+00  0.00000000E+00
  0.00000000E+00  0.00000000E+00  0.00000000E+00  0.00000000E+00  0.00000000E+00
  0.00000000E+00  0.00000000E+00  0.00000000E+00  0.00000000E+00  0.00000000E+00
  0.00000000E+00  0.00000000E+00  0.00000000E+00  0.00000000E+00  0.00000000E+00
  0.00000000E+00  0.00000000E+00  0.00000000E+00  0.00000000E+00  0.00000000E+00
  0.00000000E+00  0.00000000E+00  0.00000000E+00  0.00000000E+00  0.00000000E+00
  0.00000000E+00  0.00000000E+00  0.00000000E+00  0.00000000E+00  0.00000000E+00
  0.00000000E+00  0.00000000E+00  0.00000000E+00  0.00000000E+00  0.00000000E+00
  0.00000000E+00  0.00000000E+00  0.00000000E+00  0.00000000E+00  0.00000000E+00
  0.00000000E+00  0.00000000E+00  0.00000000E+00  0.00000000E+00  0.00000000E+00
  0.00000000E+00  0.00000000E+00  0.00000000E+00  0.00000000E+00  0.00000000E+00
  0.00000000E+00  0.00000000E+00  0.00000000E+00  0.00000000E+00  0.00000000E+00
  0.00000000E+00  0.00000000E+00  0.00000000E+00  0.00000000E+00  0.00000000E+00
  0.00000000E+00  0.00000000E+00  0.00000000E+00  0.00000000E+00  0.00000000E+00
  0.00000000E+00  0.00000000E+00  0.00000000E+00  0.00000000E+00  0.00000000E+00
  0.00000000E+00  0.00000000E+00  0.00000000E+00  0.00000000E+00  0.00000000E+00
  0.00000000E+00  0.00000000E+00  0.00000000E+00  0.00000000E+00  0.00000000E+00
  0.00000000E+00  0.00000000E+00  0.00000000E+00  0.00000000E+00  0.00000000E+00
  0.00000000E+00  0.00000000E+00  0.00000000E+00  0.00000000E+00  0.00000000E+00
  0.00000000E+00  0.00000000E+00  0.00000000E+00  0.00000000E+00  0.00000000E+00
  0.00000000E+00  0.00000000E+00  0.00000000E+00  0.00000000E+00  0.00000000E+00
  0.00000000E+00  0.00000000E+00  0.00000000E+00  0.00000000E+00  0.00000000E+00
  0.00000000E+00  0.00000000E+00  0.00000000E+00  0.00000000E+00  0.00000000E+00
  0.00000000E+00  0.00000000E+00  0.00000000E+00  0.00000000E+00  0.00000000E+00
  0.00000000E+00  0.00000000E+00  0.00000000E+00  0.00000000E+00  0.00000000E+00
  0.00000000E+00  0.00000000E+00  0.00000000E+00  0.00000000E+00  0.00000000E+00
  0.00000000E+00  0.00000000E+00  0.00000000E+00  0.00000000E+00  0.00000000E+00
  0.00000000E+00  0.00000000E+00  0.00000000E+00  0.00000000E+00  0.00000000E+00
  0.00000000E+00  0.00000000E+00  0.00000000E+00  0.00000000E+00  0.00000000E+00
  0.00000000E+00  0.00000000E+00  0.00000000E+00  0.00000000E+00  0.00000000E+00
  0.00000000E+00  0.00000000E+00  0.00000000E+00  0.00000000E+00
MO    4                     OCC NO =   1.00000000 ORB. ENERGY =  -0.23306078
 -2.53553452E-01 -1.87903830E-01 -1.70976918E-01 -1.79298223E-01 -2.08854197E-01
 -2.61100044E-01 -3.27015488E-01 -4.01273147E-01 -4.20561320E-01 -3.18077705E-01
 -1.33044585E-01 -3.51760736E-02 -1.25121580E-01 -2.62187608E-01 -2.49087175E-01
  3.95740076E-02  4.84814617E-01  4.27253136E-01 -6.41801529E-02 -3.17176398E-01
 -1.27593262E-01  8.79138647E-02  5.02131207E-02  8.81921266E-03  0.00000000E+00
  0.00000000E+00  0.00000000E+00  0.00000000E+00  0.00000000E+00  0.00000000E+00
  0.00000000E+00  0.00000000E+00  0.00000000E+00  0.00000000E+00  0.00000000E+00
  0.00000000E+00  0.00000000E+00  0.00000000E+00  0.00000000E+00  0.00000000E+00
  0.00000000E+00  0.00000000E+00  0.00000000E+00  0.00000000E+00  0.00000000E+00
  0.00000000E+00  0.00000000E+00  0.00000000E+00  0.00000000E+00  0.00000000E+00
  0.00000000E+00  0.00000000E+00  0.00000000E+00  0.00000000E+00  0.00000000E+00
  0.00000000E+00  0.00000000E+00  0.00000000E+00  0.00000000E+00  0.00000000E+00
  0.00000000E+00  0.00000000E+00  0.00000000E+00  0.00000000E+00  0.00000000E+00
  0.00000000E+00  0.00000000E+00  0.00000000E+00  0.00000000E+00  0.00000000E+00
  0.00000000E+00  0.00000000E+00  0.00000000E+00  0.00000000E+00  0.00000000E+00
  0.00000000E+00  0.00000000E+00  0.00000000E+00  0.00000000E+00  0.00000000E+00
  0.00000000E+00  0.00000000E+00  0.00000000E+00  0.00000000E+00  0.00000000E+00
  0.00000000E+00  0.00000000E+00  0.00000000E+00  0.00000000E+00  0.00000000E+00
  0.00000000E+00  0.00000000E+00  0.00000000E+00  0.00000000E+00  0.00000000E+00
  0.00000000E+00  0.00000000E+00  0.00000000E+00  0.00000000E+00  0.00000000E+00
  0.00000000E+00  0.00000000E+00  0.00000000E+00  0.00000000E+00  0.00000000E+00
  0.00000000E+00  0.00000000E+00  0.00000000E+00  0.00000000E+00  0.00000000E+00
  0.00000000E+00  0.00000000E+00  0.00000000E+00  0.00000000E+00  0.00000000E+00
  0.00000000E+00  0.00000000E+00  0.00000000E+00  0.00000000E+00  0.00000000E+00
  0.00000000E+00  0.00000000E+00  0.00000000E+00  0.00000000E+00  0.00000000E+00
  0.00000000E+00  0.00000000E+00  0.00000000E+00  0.00000000E+00  0.00000000E+00
  0.00000000E+00  0.00000000E+00  0.00000000E+00  0.00000000E+00  0.00000000E+00
  0.00000000E+00  0.00000000E+00  0.00000000E+00  0.00000000E+00  0.00000000E+00
  0.00000000E+00  0.00000000E+00  0.00000000E+00  0.00000000E+00  0.00000000E+00
  0.00000000E+00  0.00000000E+00  0.00000000E+00  0.00000000E+00  0.00000000E+00
  0.00000000E+00  0.00000000E+00  0.00000000E+00  0.00000000E+00  0.00000000E+00
  0.00000000E+00  0.00000000E+00  0.00000000E+00  0.00000000E+00  0.00000000E+00
  0.00000000E+00  0.00000000E+00  0.00000000E+00  0.00000000E+00  0.00000000E+00
  0.00000000E+00  0.00000000E+00  0.00000000E+00  0.00000000E+00  0.00000000E+00
  0.00000000E+00  0.00000000E+00  0.00000000E+00  0.00000000E+00  0.00000000E+00
  0.00000000E+00  0.00000000E+00  0.00000000E+00  0.00000000E+00  0.00000000E+00
  0.00000000E+00  0.00000000E+00  0.00000000E+00  0.00000000E+00  0.00000000E+00
  0.00000000E+00  0.00000000E+00  0.00000000E+00  0.00000000E+00  0.00000000E+00
  0.00000000E+00  0.00000000E+00  0.00000000E+00  0.00000000E+00  0.00000000E+00
  0.00000000E+00  0.00000000E+00  0.00000000E+00  0.00000000E+00
MO    5                     OCC NO =   1.00000000 ORB. ENERGY = -26.16048200
  0.00000000E+00  0.00000000E+00  0.00000000E+00  0.00000000E+00  0.00000000E+00
  0.00000000E+00  0.00000000E+00  0.00000000E+00  0.00000000E+00  0.00000000E+00
  0.00000000E+00  0.00000000E+00  0.00000000E+00  0.00000000E+00  0.00000000E+00
  0.00000000E+00  0.00000000E+00  0.00000000E+00  0.00000000E+00  0.00000000E+00
  0.00000000E+00  0.00000000E+00  0.00000000E+00  0.00000000E+00  3.20444401E+01
  0.00000000E+00  0.00000000E+00  2.60610419E+01  0.00000000E+00  0.00000000E+00
  3.17464699E+01  0.00000000E+00  0.00000000E+00  4.12391814E+01  0.00000000E+00
  0.00000000E+00  4.72204422E+01  0.00000000E+00  0.00000000E+00  4.77992181E+01
  0.00000000E+00  0.00000000E+00  4.00707269E+01  0.00000000E+00  0.00000000E+00
  2.36462285E+01  0.00000000E+00  0.00000000E+00  7.91099209E+00  0.00000000E+00
  0.00000000E+00  8.60751491E-01  0.00000000E+00  0.00000000E+00 -6.65096006E-02
  0.00000000E+00  0.00000000E+00 -1.24582823E-02  0.00000000E+00  0.00000000E+00
 -1.51427881E-02  0.00000000E+00  0.00000000E+00  2.07415000E-02  0.00000000E+00
  0.00000000E+00  1.65787866E-02  0.00000000E+00  0.00000000E+00  5.02923572E-03
  0.00000000E+00  0.00000000E+00 -2.20917987E-03  0.00000000E+00  0.00000000E+00
  5.62512358E-04  0.00000000E+00  0.00000000E+00 -1.06050979E-04  0.00000000E+00
  0.00000000E+00  1.17617657E-05  0.00000000E+00  0.00000000E+00  0.00000000E+00
  0.00000000E+00  0.00000000E+00  0.00000000E+00  0.00000000E+00  0.00000000E+00
  0.00000000E+00  0.00000000E+00  0.00000000E+00  0.00000000E+00  0.00000000E+00
  0.00000000E+00  0.00000000E+00  0.00000000E+00  0.00000000E+00  0.00000000E+00
  0.00000000E+00  0.00000000E+00  0.00000000E+00  0.00000000E+00  0.00000000E+00
  0.00000000E+00  0.00000000E+00  0.00000000E+00  0.00000000E+00  0.00000000E+00
  0.00000000E+00  0.00000000E+00  0.00000000E+00  0.00000000E+00  0.00000000E+00
  0.00000000E+00  0.00000000E+00  0.00000000E+00  0.00000000E+00  0.00000000E+00
  0.00000000E+00  0.00000000E+00  0.00000000E+00  0.00000000E+00  0.00000000E+00
  0.00000000E+00  0.00000000E+00  0.00000000E+00  0.00000000E+00  0.00000000E+00
  0.00000000E+00  0.00000000E+00  0.00000000E+00  0.00000000E+00  0.00000000E+00
  0.00000000E+00  0.00000000E+00  0.00000000E+00  0.00000000E+00  0.00000000E+00
  0.00000000E+00  0.00000000E+00  0.00000000E+00  0.00000000E+00  0.00000000E+00
  0.00000000E+00  0.00000000E+00  0.00000000E+00  0.00000000E+00  0.00000000E+00
  0.00000000E+00  0.00000000E+00  0.00000000E+00  0.00000000E+00  0.00000000E+00
  0.00000000E+00  0.00000000E+00  0.00000000E+00  0.00000000E+00  0.00000000E+00
  0.00000000E+00  0.00000000E+00  0.00000000E+00  0.00000000E+00  0.00000000E+00
  0.00000000E+00  0.00000000E+00  0.00000000E+00  0.00000000E+00  0.00000000E+00
  0.00000000E+00  0.00000000E+00  0.00000000E+00  0.00000000E+00  0.00000000E+00
  0.00000000E+00  0.00000000E+00  0.00000000E+00  0.00000000E+00  0.00000000E+00
  0.00000000E+00  0.00000000E+00  0.00000000E+00  0.00000000E+00  0.00000000E+00
  0.00000000E+00  0.00000000E+00  0.00000000E+00  0.00000000E+00  0.00000000E+00
  0.00000000E+00  0.00000000E+00  0.00000000E+00  0.00000000E+00  0.00000000E+00
  0.00000000E+00  0.00000000E+00  0.00000000E+00  0.00000000E+00
MO    6                     OCC NO =   1.00000000 ORB. ENERGY = -26.16048200
  0.00000000E+00  0.00000000E+00  0.00000000E+00  0.00000000E+00  0.00000000E+00
  0.00000000E+00  0.00000000E+00  0.00000000E+00  0.00000000E+00  0.00000000E+00
  0.00000000E+00  0.00000000E+00  0.00000000E+00  0.00000000E+00  0.00000000E+00
  0.00000000E+00  0.00000000E+00  0.00000000E+00  0.00000000E+00  0.00000000E+00
  0.00000000E+00  0.00000000E+00  0.00000000E+00  0.00000000E+00  0.00000000E+00
  3.20444401E+01  0.00000000E+00  0.00000000E+00  2.60610419E+01  0.00000000E+00
  0.00000000E+00  3.17464699E+01  0.00000000E+00  0.00000000E+00  4.12391814E+01
  0.00000000E+00  0.00000000E+00  4.72204422E+01  0.00000000E+00  0.00000000E+00
  4.77992181E+01  0.00000000E+00  0.00000000E+00  4.00707269E+01  0.00000000E+00
  0.00000000E+00  2.36462285E+01  0.00000000E+00  0.00000000E+00  7.91099209E+00
  0.00000000E+00  0.00000000E+00  8.60751491E-01  0.00000000E+00  0.00000000E+00
 -6.65096006E-02  0.00000000E+00  0.00000000E+00 -1.24582823E-02  0.00000000E+00
  0.00000000E+00 -1.51427881E-02  0.00000000E+00  0.00000000E+00  2.07415000E-02
  0.00000000E+00  0.00000000E+00  1.65787866E-02  0.00000000E+00  0.00000000E+00
  5.02923572E-03  0.00000000E+00  0.00000000E+00 -2.20917987E-03  0.00000000E+00
  0.00000000E+00  5.62512358E-04  0.00000000E+00  0.00000000E+00 -1.06050979E-04
  0.00000000E+00  0.00000000E+00  1.17617657E-05  0.00000000E+00  0.00000000E+00
  0.00000000E+00  0.00000000E+00  0.00000000E+00  0.00000000E+00  0.00000000E+00
  0.00000000E+00  0.00000000E+00  0.00000000E+00  0.00000000E+00  0.00000000E+00
  0.00000000E+00  0.00000000E+00  0.00000000E+00  0.00000000E+00  0.00000000E+00
  0.00000000E+00  0.00000000E+00  0.00000000E+00  0.00000000E+00  0.00000000E+00
  0.00000000E+00  0.00000000E+00  0.00000000E+00  0.00000000E+00  0.00000000E+00
  0.00000000E+00  0.00000000E+00  0.00000000E+00  0.00000000E+00  0.00000000E+00
  0.00000000E+00  0.00000000E+00  0.00000000E+00  0.00000000E+00  0.00000000E+00
  0.00000000E+00  0.00000000E+00  0.00000000E+00  0.00000000E+00  0.00000000E+00
  0.00000000E+00  0.00000000E+00  0.00000000E+00  0.00000000E+00  0.00000000E+00
  0.00000000E+00  0.00000000E+00  0.00000000E+00  0.00000000E+00  0.00000000E+00
  0.00000000E+00  0.00000000E+00  0.00000000E+00  0.00000000E+00  0.00000000E+00
  0.00000000E+00  0.00000000E+00  0.00000000E+00  0.00000000E+00  0.00000000E+00
  0.00000000E+00  0.00000000E+00  0.00000000E+00  0.00000000E+00  0.00000000E+00
  0.00000000E+00  0.00000000E+00  0.00000000E+00  0.00000000E+00  0.00000000E+00
  0.00000000E+00  0.00000000E+00  0.00000000E+00  0.00000000E+00  0.00000000E+00
  0.00000000E+00  0.00000000E+00  0.00000000E+00  0.00000000E+00  0.00000000E+00
  0.00000000E+00  0.00000000E+00  0.00000000E+00  0.00000000E+00  0.00000000E+00
  0.00000000E+00  0.00000000E+00  0.00000000E+00  0.00000000E+00  0.00000000E+00
  0.00000000E+00  0.00000000E+00  0.00000000E+00  0.00000000E+00  0.00000000E+00
  0.00000000E+00  0.00000000E+00  0.00000000E+00  0.00000000E+00  0.00000000E+00
  0.00000000E+00  0.00000000E+00  0.00000000E+00  0.00000000E+00  0.00000000E+00
  0.00000000E+00  0.00000000E+00  0.00000000E+00  0.00000000E+00  0.00000000E+00
  0.00000000E+00  0.00000000E+00  0.00000000E+00  0.00000000E+00
MO    7                     OCC NO =   1.00000000 ORB. ENERGY = -26.16048200
  0.00000000E+00  0.00000000E+00  0.00000000E+00  0.00000000E+00  0.00000000E+00
  0.00000000E+00  0.00000000E+00  0.00000000E+00  0.00000000E+00  0.00000000E+00
  0.00000000E+00  0.00000000E+00  0.00000000E+00  0.00000000E+00  0.00000000E+00
  0.00000000E+00  0.00000000E+00  0.00000000E+00  0.00000000E+00  0.00000000E+00
  0.00000000E+00  0.00000000E+00  0.00000000E+00  0.00000000E+00  0.00000000E+00
  0.00000000E+00  3.20444401E+01  0.00000000E+00  0.00000000E+00  2.60610419E+01
  0.00000000E+00  0.00000000E+00  3.17464699E+01  0.00000000E+00  0.00000000E+00
  4.12391814E+01  0.00000000E+00  0.00000000E+00  4.72204422E+01  0.00000000E+00
  0.00000000E+00  4.77992181E+01  0.00000000E+00  0.00000000E+00  4.00707269E+01
  0.00000000E+00  0.00000000E+00  2.36462285E+01  0.00000000E+00  0.00000000E+00
  7.91099209E+00  0.00000000E+00  0.00000000E+00  8.60751491E-01  0.00000000E+00
  0.00000000E+00 -6.65096006E-02  0.00000000E+00  0.00000000E+00 -1.24582823E-02
  0.00000000E+00  0.00000000E+00 -1.51427881E-02  0.00000000E+00  0.00000000E+00
  2.07415000E-02  0.00000000E+00  0.00000000E+00  1.65787866E-02  0.00000000E+00
  0.00000000E+00  5.02923572E-03  0.00000000E+00  0.00000000E+00 -2.20917987E-03
  0.00000000E+00  0.00000000E+00  5.62512358E-04  0.00000000E+00  0.00000000E+00
 -1.06050979E-04  0.00000000E+00  0.00000000E+00  1.17617657E-05  0.00000000E+00
  0.00000000E+00  0.00000000E+00  0.00000000E+00  0.00000000E+00  0.00000000E+00
  0.00000000E+00  0.00000000E+00  0.00000000E+00  0.00000000E+00  0.00000000E+00
  0.00000000E+00  0.00000000E+00  0.00000000E+00  0.00000000E+00  0.00000000E+00
  0.00000000E+00  0.00000000E+00  0.00000000E+00  0.00000000E+00  0.00000000E+00
  0.00000000E+00  0.00000000E+00  0.00000000E+00  0.00000000E+00  0.00000000E+00
  0.00000000E+00  0.00000000E+00  0.00000000E+00  0.00000000E+00  0.00000000E+00
  0.00000000E+00  0.00000000E+00  0.00000000E+00  0.00000000E+00  0.00000000E+00
  0.00000000E+00  0.00000000E+00  0.00000000E+00  0.00000000E+00  0.00000000E+00
  0.00000000E+00  0.00000000E+00  0.00000000E+00  0.00000000E+00  0.00000000E+00
  0.00000000E+00  0.00000000E+00  0.00000000E+00  0.00000000E+00  0.00000000E+00
  0.00000000E+00  0.00000000E+00  0.00000000E+00  0.00000000E+00  0.00000000E+00
  0.00000000E+00  0.00000000E+00  0.00000000E+00  0.00000000E+00  0.00000000E+00
  0.00000000E+00  0.00000000E+00  0.00000000E+00  0.00000000E+00  0.00000000E+00
  0.00000000E+00  0.00000000E+00  0.00000000E+00  0.00000000E+00  0.00000000E+00
  0.00000000E+00  0.00000000E+00  0.00000000E+00  0.00000000E+00  0.00000000E+00
  0.00000000E+00  0.00000000E+00  0.00000000E+00  0.00000000E+00  0.00000000E+00
  0.00000000E+00  0.00000000E+00  0.00000000E+00  0.00000000E+00  0.00000000E+00
  0.00000000E+00  0.00000000E+00  0.00000000E+00  0.00000000E+00  0.00000000E+00
  0.00000000E+00  0.00000000E+00  0.00000000E+00  0.00000000E+00  0.00000000E+00
  0.00000000E+00  0.00000000E+00  0.00000000E+00  0.00000000E+00  0.00000000E+00
  0.00000000E+00  0.00000000E+00  0.00000000E+00  0.00000000E+00  0.00000000E+00
  0.00000000E+00  0.00000000E+00  0.00000000E+00  0.00000000E+00  0.00000000E+00
  0.00000000E+00  0.00000000E+00  0.00000000E+00  0.00000000E+00
MO    8                     OCC NO =   1.00000000 ORB. ENERGY =  -2.45995325
  0.00000000E+00  0.00000000E+00  0.00000000E+00  0.00000000E+00  0.00000000E+00
  0.00000000E+00  0.00000000E+00  0.00000000E+00  0.00000000E+00  0.00000000E+00
  0.00000000E+00  0.00000000E+00  0.00000000E+00  0.00000000E+00  0.00000000E+00
  0.00000000E+00  0.00000000E+00  0.00000000E+00  0.00000000E+00  0.00000000E+00
  0.00000000E+00  0.00000000E+00  0.00000000E+00  0.00000000E+00 -1.21718826E+01
  0.00000000E+00  0.00000000E+00 -9.89912578E+00  0.00000000E+00  0.00000000E+00
 -1.20587005E+01  0.00000000E+00  0.00000000E+00 -1.56644483E+01  0.00000000E+00
  0.00000000E+00 -1.79363933E+01  0.00000000E+00  0.00000000E+00 -1.81562377E+01
  0.00000000E+00  0.00000000E+00 -1.52206181E+01  0.00000000E+00  0.00000000E+00
 -8.98187383E+00  0.00000000E+00  0.00000000E+00 -3.00494147E+00  0.00000000E+00
  0.00000000E+00 -3.26951137E-01  0.00000000E+00  0.00000000E+00  2.15577908E-01
  0.00000000E+00  0.00000000E+00 -1.28331759E+00  0.00000000E+00  0.00000000E+00
 -1.55984635E+00  0.00000000E+00  0.00000000E+00  2.13656514E+00  0.00000000E+00
  0.00000000E+00  1.70776740E+00  0.00000000E+00  0.00000000E+00  5.18057504E-01
  0.00000000E+00  0.00000000E+00  3.49821278E-02  0.00000000E+00  0.00000000E+00
  1.14539245E-03  0.00000000E+00  0.00000000E+00 -1.84637405E-04  0.00000000E+00
  0.00000000E+00  2.29122954E-05  0.00000000E+00  0.00000000E+00  0.00000000E+00
  0.00000000E+00  0.00000000E+00  0.00000000E+00  0.00000000E+00  0.00000000E+00
  0.00000000E+00  0.00000000E+00  0.00000000E+00  0.00000000E+00  0.00000000E+00
  0.00000000E+00  0.00000000E+00  0.00000000E+00  0.00000000E+00  0.00000000E+00
  0.00000000E+00  0.00000000E+00  0.00000000E+00  0.00000000E+00  0.00000000E+00
  0.00000000E+00  0.00000000E+00  0.00000000E+00  0.00000000E+00  0.00000000E+00