atomref-proatoms Ga_q0_mult2_nist x2c-QZVPall
GAUSSIAN             33 MOL ORBITALS    182 PRIMITIVES        1 NUCLEI
  Ga   1    (CENTRE  1)   0.00000000  0.00000000  0.00000000  CHARGE = 31.0
CENTRE ASSIGNMENTS    1  1  1  1  1  1  1  1  1  1  1  1  1  1  1  1  1  1  1  1
CENTRE ASSIGNMENTS    1  1  1  1  1  1  1  1  1  1  1  1  1  1  1  1  1  1  1  1
CENTRE ASSIGNMENTS    1  1  1  1  1  1  1  1  1  1  1  1  1  1  1  1  1  1  1  1
CENTRE ASSIGNMENTS    1  1  1  1  1  1  1  1  1  1  1  1  1  1  1  1  1  1  1  1
CENTRE ASSIGNMENTS    1  1  1  1  1  1  1  1  1  1  1  1  1  1  1  1  1  1  1  1
CENTRE ASSIGNMENTS    1  1  1  1  1  1  1  1  1  1  1  1  1  1  1  1  1  1  1  1
CENTRE ASSIGNMENTS    1  1  1  1  1  1  1  1  1  1  1  1  1  1  1  1  1  1  1  1
CENTRE ASSIGNMENTS    1  1  1  1  1  1  1  1  1  1  1  1  1  1  1  1  1  1  1  1
CENTRE ASSIGNMENTS    1  1  1  1  1  1  1  1  1  1  1  1  1  1  1  1  1  1  1  1
CENTRE ASSIGNMENTS    1  1
TYPE ASSIGNMENTS      1  1  1  1  1  1  1  1  1  1  1  1  1  1  1  1  1  1  1  1
TYPE ASSIGNMENTS      1  1  1  1  2  3  4  2  3  4  2  3  4  2  3  4  2  3  4  2
TYPE ASSIGNMENTS      3  4  2  3  4  2  3  4  2  3  4  2  3  4  2  3  4  2  3  4
TYPE ASSIGNMENTS      2  3  4  2  3  4  2  3  4  2  3  4  2  3  4  2  3  4  2  3
TYPE ASSIGNMENTS      4  2  3  4  2  3  4  5  8  9  6 10  7  5  8  9  6 10  7  5
TYPE ASSIGNMENTS      8  9  6 10  7  5  8  9  6 10  7  5  8  9  6 10  7  5  8  9
TYPE ASSIGNMENTS      6 10  7  5  8  9  6 10  7  5  8  9  6 10  7  5  8  9  6 10
TYPE ASSIGNMENTS      7  5  8  9  6 10  7 11 14 15 17 20 18 12 16 19 13 11 14 15
TYPE ASSIGNMENTS     17 20 18 12 16 19 13 21 24 25 30 33 31 26 34 35 28 22 27 32
TYPE ASSIGNMENTS     29 23
EXPONENTS  1.9783934E+07 2.7996973E+06 5.8816942E+05 1.5532255E+05 4.7921979E+04
EXPONENTS  1.6623624E+04 6.2971459E+03 2.5358192E+03 1.1159071E+03 5.0967310E+02
EXPONENTS  2.3657896E+02 2.5416934E+03 8.4894636E+02 3.2959571E+02 1.4985733E+02
EXPONENTS  7.2778533E+01 2.8885226E+01 1.3245569E+01 5.6315089E+00 2.6565217E+00
EXPONENTS  1.1479101E+00 2.7032330E-01 1.2783989E-01 5.4978629E-02 6.9223177E+04
EXPONENTS  6.9223177E+04 6.9223177E+04 1.5368941E+04 1.5368941E+04 1.5368941E+04
EXPONENTS  5.1432801E+03 5.1432801E+03 5.1432801E+03 1.8177464E+03 1.8177464E+03
EXPONENTS  1.8177464E+03 7.0601011E+02 7.0601011E+02 7.0601011E+02 2.9418571E+02
EXPONENTS  2.9418571E+02 2.9418571E+02 1.3039077E+02 1.3039077E+02 1.3039077E+02
EXPONENTS  6.1449615E+01 6.1449615E+01 6.1449615E+01 3.0215238E+01 3.0215238E+01
EXPONENTS  3.0215238E+01 1.5226776E+01 1.5226776E+01 1.5226776E+01 7.7612395E+00
EXPONENTS  7.7612395E+00 7.7612395E+00 2.2000000E+01 2.2000000E+01 2.2000000E+01
EXPONENTS  1.8829985E+02 1.8829985E+02 1.8829985E+02 6.4789446E+01 6.4789446E+01
EXPONENTS  6.4789446E+01 2.8450583E+01 2.8450583E+01 2.8450583E+01 7.0284284E+00
EXPONENTS  7.0284284E+00 7.0284284E+00 3.1154296E+00 3.1154296E+00 3.1154296E+00
EXPONENTS  1.3014495E+00 1.3014495E+00 1.3014495E+00 4.4067807E-01 4.4067807E-01
EXPONENTS  4.4067807E-01 1.3379483E-01 1.3379483E-01 1.3379483E-01 4.1384457E-02
EXPONENTS  4.1384457E-02 4.1384457E-02 3.7896364E+02 3.7896364E+02 3.7896364E+02
EXPONENTS  3.7896364E+02 3.7896364E+02 3.7896364E+02 1.1235905E+02 1.1235905E+02
EXPONENTS  1.1235905E+02 1.1235905E+02 1.1235905E+02 1.1235905E+02 4.3070970E+01
EXPONENTS  4.3070970E+01 4.3070970E+01 4.3070970E+01 4.3070970E+01 4.3070970E+01
EXPONENTS  1.8425939E+01 1.8425939E+01 1.8425939E+01 1.8425939E+01 1.8425939E+01
EXPONENTS  1.8425939E+01 8.4255156E+00 8.4255156E+00 8.4255156E+00 8.4255156E+00
EXPONENTS  8.4255156E+00 8.4255156E+00 3.9263048E+00 3.9263048E+00 3.9263048E+00
EXPONENTS  3.9263048E+00 3.9263048E+00 3.9263048E+00 1.7887907E+00 1.7887907E+00
EXPONENTS  1.7887907E+00 1.7887907E+00 1.7887907E+00 1.7887907E+00 7.7319567E-01
EXPONENTS  7.7319567E-01 7.7319567E-01 7.7319567E-01 7.7319567E-01 7.7319567E-01
EXPONENTS  3.0000528E-01 3.0000528E-01 3.0000528E-01 3.0000528E-01 3.0000528E-01
EXPONENTS  3.0000528E-01 1.1200000E-01 1.1200000E-01 1.1200000E-01 1.1200000E-01
EXPONENTS  1.1200000E-01 1.1200000E-01 4.7100000E-01 4.7100000E-01 4.7100000E-01
EXPONENTS  4.7100000E-01 4.7100000E-01 4.7100000E-01 4.7100000E-01 4.7100000E-01
EXPONENTS  4.7100000E-01 4.7100000E-01 1.8100000E-01 1.8100000E-01 1.8100000E-01
EXPONENTS  1.8100000E-01 1.8100000E-01 1.8100000E-01 1.8100000E-01 1.8100000E-01
EXPONENTS  1.8100000E-01 1.8100000E-01 4.0320000E-01 4.0320000E-01 4.0320000E-01
EXPONENTS  4.0320000E-01 4.0320000E-01 4.0320000E-01 4.0320000E-01 4.0320000E-01
EXPONENTS  4.0320000E-01 4.0320000E-01 4.0320000E-01 4.0320000E-01 4.0320000E-01
EXPONENTS  4.0320000E-01 4.0320000E-01
MO    1                     OCC NO =   1.00000000 ORB. ENERGY = -377.61079628
  1.35442587E+01  1.00266878E+01  8.60233436E+00  8.36062505E+00  8.79894182E+00
  1.02025609E+01  1.22648944E+01  1.43240891E+01  1.51509784E+01  1.47791567E+01
  6.98266843E+00  9.00758143E-01  2.77681830E+00  6.21529433E+00  8.31967295E+00
  3.08758866E+00  1.08186283E-01  1.74489311E-04 -1.41699807E-03  5.87814286E-04
 -1.34515083E-04  1.98644727E-05 -8.44319613E-06  1.34466312E-06  0.00000000E+00
  0.00000000E+00  0.00000000E+00  0.00000000E+00  0.00000000E+00  0.00000000E+00
  0.00000000E+00  0.00000000E+00  0.00000000E+00  0.00000000E+00  0.00000000E+00
  0.00000000E+00  0.00000000E+00  0.00000000E+00  0.00000000E+00  0.00000000E+00
  0.00000000E+00  0.00000000E+00  0.00000000E+00  0.00000000E+00  0.00000000E+00
  0.00000000E+00  0.00000000E+00  0.00000000E+00  0.00000000E+00  0.00000000E+00
  0.00000000E+00  0.00000000E+00  0.00000000E+00  0.00000000E+00  0.00000000E+00
  0.00000000E+00  0.00000000E+00  0.00000000E+00  0.00000000E+00  0.00000000E+00
  0.00000000E+00  0.00000000E+00  0.00000000E+00  0.00000000E+00  0.00000000E+00
  0.00000000E+00  0.00000000E+00  0.00000000E+00  0.00000000E+00  0.00000000E+00
  0.00000000E+00  0.00000000E+00  0.00000000E+00  0.00000000E+00  0.00000000E+00
  0.00000000E+00  0.00000000E+00  0.00000000E+00  0.00000000E+00  0.00000000E+00
  0.00000000E+00  0.00000000E+00  0.00000000E+00  0.00000000E+00  0.00000000E+00
  0.00000000E+00  0.00000000E+00  0.00000000E+00  0.00000000E+00  0.00000000E+00
  0.00000000E+00  0.00000000E+00  0.00000000E+00  0.00000000E+00  0.00000000E+00
  0.00000000E+00  0.00000000E+00  0.00000000E+00  0.00000000E+00  0.00000000E+00
  0.00000000E+00  0.00000000E+00  0.00000000E+00  0.00000000E+00  0.00000000E+00
  0.00000000E+00  0.00000000E+00  0.00000000E+00  0.00000000E+00  0.00000000E+00
  0.00000000E+00  0.00000000E+00  0.00000000E+00  0.00000000E+00  0.00000000E+00
  0.00000000E+00  0.00000000E+00  0.00000000E+00  0.00000000E+00  0.00000000E+00
  0.00000000E+00  0.00000000E+00  0.00000000E+00  0.00000000E+00  0.00000000E+00
  0.00000000E+00  0.00000000E+00  0.00000000E+00  0.00000000E+00  0.00000000E+00
  0.00000000E+00  0.00000000E+00  0.00000000E+00  0.00000000E+00  0.00000000E+00
  0.00000000E+00  0.00000000E+00  0.00000000E+00  0.00000000E+00  0.00000000E+00
  0.00000000E+00  0.00000000E+00  0.00000000E+00  0.00000000E+00  0.00000000E+00
  0.00000000E+00  0.00000000E+00  0.00000000E+00  0.00000000E+00  0.00000000E+00
  0.00000000E+00  0.00000000E+00  0.00000000E+00  0.00000000E+00  0.00000000E+00
  0.00000000E+00  0.00000000E+00  0.00000000E+00  0.00000000E+00  0.00000000E+00
  0.00000000E+00  0.00000000E+00  0.00000000E+00  0.00000000E+00  0.00000000E+00
  0.00000000E+00  0.00000000E+00  0.00000000E+00  0.00000000E+00  0.00000000E+00
  0.00000000E+00  0.00000000E+00  0.00000000E+00  0.00000000E+00  0.00000000E+00
  0.00000000E+00  0.00000000E+00  0.00000000E+00  0.00000000E+00  0.00000000E+00
  0.00000000E+00  0.00000000E+00
MO    2                     OCC NO =   1.00000000 ORB. ENERGY = -47.09965975
 -4.35150609E+00 -3.22137918E+00 -2.76376220E+00 -2.68610572E+00 -2.82692835E+00
 -3.27788376E+00 -3.94047130E+00 -4.60205038E+00 -4.86771378E+00 -4.74825471E+00
 -2.24339514E+00 -5.89066092E-01 -1.81594751E+00 -4.06459733E+00 -5.44079148E+00
 -1.61867449E+00  3.76272912E+00  2.98600440E+00  3.94399635E-01 -1.86293512E-02
  3.76401406E-03 -4.61506230E-04  1.93171112E-04 -3.06087484E-05  0.00000000E+00
  0.00000000E+00  0.00000000E+00  0.00000000E+00  0.00000000E+00  0.00000000E+00
  0.00000000E+00  0.00000000E+00  0.00000000E+00  0.00000000E+00  0.00000000E+00
  0.00000000E+00  0.00000000E+00  0.00000000E+00  0.00000000E+00  0.00000000E+00
  0.00000000E+00  0.00000000E+00  0.00000000E+00  0.00000000E+00  0.00000000E+00
  0.00000000E+00  0.00000000E+00  0.00000000E+00  0.00000000E+00  0.00000000E+00
  0.00000000E+00  0.00000000E+00  0.00000000E+00  0.00000000E+00  0.00000000E+00
  0.00000000E+00  0.00000000E+00  0.00000000E+00  0.00000000E+00  0.00000000E+00
  0.00000000E+00  0.00000000E+00  0.00000000E+00  0.00000000E+00  0.00000000E+00
  0.00000000E+00  0.00000000E+00  0.00000000E+00  0.00000000E+00  0.00000000E+00
  0.00000000E+00  0.00000000E+00  0.00000000E+00  0.00000000E+00  0.00000000E+00
  0.00000000E+00  0.00000000E+00  0.00000000E+00  0.00000000E+00  0.00000000E+00
  0.00000000E+00  0.00000000E+00  0.00000000E+00  0.00000000E+00  0.00000000E+00
  0.00000000E+00  0.00000000E+00  0.00000000E+00  0.00000000E+00  0.00000000E+00
  0.00000000E+00  0.00000000E+00  0.00000000E+00  0.00000000E+00  0.00000000E+00
  0.00000000E+00  0.00000000E+00  0.00000000E+00  0.00000000E+00  0.00000000E+00
  0.00000000E+00  0.00000000E+00  0.00000000E+00  0.00000000E+00  0.00000000E+00
  0.00000000E+00  0.00000000E+00  0.00000000E+00  0.00000000E+00  0.00000000E+00
  0.00000000E+00  0.00000000E+00  0.00000000E+00  0.00000000E+00  0.00000000E+00
  0.00000000E+00  0.00000000E+00  0.00000000E+00  0.00000000E+00  0.00000000E+00
  0.00000000E+00  0.00000000E+00  0.00000000E+00  0.00000000E+00  0.00000000E+00
  0.00000000E+00  0.00000000E+00  0.00000000E+00  0.00000000E+00  0.00000000E+00
  0.00000000E+00  0.00000000E+00  0.00000000E+00  0.00000000E+00  0.00000000E+00
  0.00000000E+00  0.00000000E+00  0.00000000E+00  0.00000000E+00  0.00000000E+00
  0.00000000E+00  0.00000000E+00  0.00000000E+00  0.00000000E+00  0.00000000E+00
  0.00000000E+00  0.00000000E+00  0.00000000E+00  0.00000000E+00  0.00000000E+00
  0.00000000E+00  0.00000000E+00  0.00000000E+00  0.00000000E+00  0.00000000E+00
  0.00000000E+00  0.00000000E+00  0.00000000E+00  0.00000000E+00  0.00000000E+00
  0.00000000E+00  0.00000000E+00  0.00000000E+00  0.00000000E+00  0.00000000E+00
  0.00000000E+00  0.00000000E+00  0.00000000E+00  0.00000000E+00  0.00000000E+00
  0.00000000E+00  0.00000000E+00  0.00000000E+00  0.00000000E+00  0.00000000E+00
  0.00000000E+00  0.00000000E+00  0.00000000E+00  0.00000000E+00  0.00000000E+00
  0.00000000E+00  0.00000000E+00
MO    3                     OCC NO =   1.00000000 ORB. ENERGY =  -5.73715408
  1.68001338E+00  1.24369817E+00  1.06702309E+00  1.03704177E+00  1.09141005E+00
  1.26551324E+00  1.52132259E+00  1.77674260E+00  1.87930894E+00  1.83318863E+00
  8.66121702E-01  2.48569199E-01  7.66278391E-01  1.71514490E+00  2.29585983E+00
  7.20571070E-01 -2.21527284E+00 -2.57124250E+00  7.68688271E-02  1.08742152E+00
  3.55057472E-01  7.34800863E-03 -1.91013590E-03  2.58496418E-04  0.00000000E+00
  0.00000000E+00  0.00000000E+00  0.00000000E+00  0.00000000E+00  0.00000000E+00
  0.00000000E+00  0.00000000E+00  0.00000000E+00  0.00000000E+00  0.00000000E+00
  0.00000000E+00  0.00000000E+00  0.00000000E+00  0.00000000E+00  0.00000000E+00
  0.00000000E+00  0.00000000E+00  0.00000000E+00  0.00000000E+00  0.00000000E+00
  0.00000000E+00  0.00000000E+00  0.00000000E+00  0.00000000E+00  0.00000000E+00
  0.00000000E+00  0.00000000E+00  0.00000000E+00  0.00000000E+00  0.00000000E+00
  0.00000000E+00  0.00000000E+00  0.00000000E+00  0.00000000E+00  0.00000000E+00
  0.00000000E+00  0.00000000E+00  0.00000000E+00  0.00000000E+00  0.00000000E+00
  0.00000000E+00  0.00000000E+00  0.00000000E+00  0.00000000E+00  0.00000000E+00
  0.00000000E+00  0.00000000E+00  0.00000000E+00  0.00000000E+00  0.00000000E+00
  0.00000000E+00  0.00000000E+00  0.00000000E+00  0.00000000E+00  0.00000000E+00
  0.00000000E+00  0.00000000E+00  0.00000000E+00  0.00000000E+00  0.00000000E+00
  0.00000000E+00  0.00000000E+00  0.00000000E+00  0.00000000E+00  0.00000000E+00
  0.00000000E+00  0.00000000E+00  0.00000000E+00  0.00000000E+00  0.00000000E+00
  0.00000000E+00  0.00000000E+00  0.00000000E+00  0.00000000E+00  0.00000000E+00
  0.00000000E+00  0.00000000E+00  0.00000000E+00  0.00000000E+00  0.00000000E+00
  0.00000000E+00  0.00000000E+00  0.00000000E+00  0.00000000E+00  0.00000000E+00
  0.00000000E+00  0.00000000E+00  0.00000000E+00  0.00000000E+00  0.00000000E+00
  0.00000000E+00  0.00000000E+00  0.00000000E+00  0.00000000E+00  0.00000000E+00
  0.00000000E+00  0.00000000E+00  0.00000000E+00  0.00000000E+00  0.00000000E+00
  0.00000000E+00  0.00000000E+00  0.00000000E+00  0.00000000E+00  0.00000000E+00
  0.00000000E+00  0.00000000E+00  0.00000000E+00  0.00000000E+00  0.00000000E+00
  0.00000000E+00  0.00000000E+00  0.00000000E+00  0.00000000E+00  0.00000000E+00
  0.00000000E+00  0.00000000E+00  0.00000000E+00  0.00000000E+00  0.00000000E+00
  0.00000000E+00  0.00000000E+00  0.00000000E+00  0.00000000E+00  0.00000000E+00
  0.00000000E+00  0.00000000E+00  0.00000000E+00  0.00000000E+00  0.00000000E+00
  0.00000000E+00  0.00000000E+00  0.00000000E+00  0.00000000E+00  0.00000000E+00
  0.00000000E+00  0.00000000E+00  0.00000000E+00  0.00000000E+00  0.00000000E+00
  0.00000000E+00  0.00000000E+00  0.00000000E+00  0.00000000E+00  0.00000000E+00
  0.00000000E+00  0.00000000E+00  0.00000000E+00  0.00000000E+00  0.00000000E+00
  0.00000000E+00  0.00000000E+00  0.00000000E+00  0.00000000E+00  0.00000000E+00
  0.00000000E+00  0.00000000E+00
MO    4                     OCC NO =   1.00000000 ORB. ENERGY =  -0.38110830
 -4.25610667E-01 -3.15075588E-01 -2.70317139E-01 -2.62721739E-01 -2.76495272E-01
 -3.20602170E-01 -3.85408313E-01 -4.50115820E-01 -4.76099737E-01 -4.64415725E-01
 -2.19421249E-01 -6.35838507E-02 -1.96013549E-01 -4.38733027E-01 -5.87279556E-01
 -1.88682561E-01  5.97465760E-01  7.18720926E-01 -2.13240757E-02 -4.33557824E-01
 -2.22762530E-01  9.80047029E-02  9.13799707E-02  1.71747466E-02  0.00000000E+00
  0.00000000E+00  0.00000000E+00  0.00000000E+00  0.00000000E+00  0.00000000E+00
  0.00000000E+00  0.00000000E+00  0.00000000E+00  0.00000000E+00  0.00000000E+00
  0.00000000E+00  0.00000000E+00  0.00000000E+00  0.00000000E+00  0.00000000E+00
  0.00000000E+00  0.00000000E+00  0.00000000E+00  0.00000000E+00  0.00000000E+00
  0.00000000E+00  0.00000000E+00  0.00000000E+00  0.00000000E+00  0.00000000E+00
  0.00000000E+00  0.00000000E+00  0.00000000E+00  0.00000000E+00  0.00000000E+00
  0.00000000E+00  0.00000000E+00  0.00000000E+00  0.00000000E+00  0.00000000E+00
  0.00000000E+00  0.00000000E+00  0.00000000E+00  0.00000000E+00  0.00000000E+00
  0.00000000E+00  0.00000000E+00  0.00000000E+00  0.00000000E+00  0.00000000E+00
  0.00000000E+00  0.00000000E+00  0.00000000E+00  0.00000000E+00  0.00000000E+00
  0.00000000E+00  0.00000000E+00  0.00000000E+00  0.00000000E+00  0.00000000E+00
  0.00000000E+00  0.00000000E+00  0.00000000E+00  0.00000000E+00  0.00000000E+00
  0.00000000E+00  0.00000000E+00  0.00000000E+00  0.00000000E+00  0.00000000E+00
  0.00000000E+00  0.00000000E+00  0.00000000E+00  0.00000000E+00  0.00000000E+00
  0.00000000E+00  0.00000000E+00  0.00000000E+00  0.00000000E+00  0.00000000E+00
  0.00000000E+00  0.00000000E+00  0.00000000E+00  0.00000000E+00  0.00000000E+00
  0.00000000E+00  0.00000000E+00  0.00000000E+00  0.00000000E+00  0.00000000E+00
  0.00000000E+00  0.00000000E+00  0.00000000E+00  0.00000000E+00  0.00000000E+00
  0.00000000E+00  0.00000000E+00  0.00000000E+00  0.00000000E+00  0.00000000E+00
  0.00000000E+00  0.00000000E+00  0.00000000E+00  0.00000000E+00  0.00000000E+00
  0.00000000E+00  0.00000000E+00  0.00000000E+00  0.00000000E+00  0.00000000E+00
  0.00000000E+00  0.00000000E+00  0.00000000E+00  0.00000000E+00  0.00000000E+00
  0.00000000E+00  0.00000000E+00  0.00000000E+00  0.00000000E+00  0.00000000E+00
  0.00000000E+00  0.00000000E+00  0.00000000E+00  0.00000000E+00  0.00000000E+00
  0.00000000E+00  0.00000000E+00  0.00000000E+00  0.00000000E+00  0.00000000E+00
  0.00000000E+00  0.00000000E+00  0.00000000E+00  0.00000000E+00  0.00000000E+00
  0.00000000E+00  0.00000000E+00  0.00000000E+00  0.00000000E+00  0.00000000E+00
  0.00000000E+00  0.00000000E+00  0.00000000E+00  0.00000000E+00  0.00000000E+00
  0.00000000E+00  0.00000000E+00  0.00000000E+00  0.00000000E+00  0.00000000E+00
  0.00000000E+00  0.00000000E+00  0.00000000E+00  0.00000000E+00  0.00000000E+00
  0.00000000E+00  0.00000000E+00  0.00000000E+00  0.00000000E+00  0.00000000E+00
  0.00000000E+00  0.00000000E+00
MO    5                     OCC NO =   1.00000000 ORB. ENERGY = -40.96281073
  0.00000000E+00  0.00000000E+00  0.00000000E+00  0.00000000E+00  0.00000000E+00
  0.00000000E+00  0.00000000E+00  0.00000000E+00  0.00000000E+00  0.00000000E+00
  0.00000000E+00  0.00000000E+00  0.00000000E+00  0.00000000E+00  0.00000000E+00
  0.00000000E+00  0.00000000E+00  0.00000000E+00  0.00000000E+00  0.00000000E+00
  0.00000000E+00  0.00000000E+00  0.00000000E+00  0.00000000E+00  8.69833906E+01
  0.00000000E+00  0.00000000E+00  4.20255529E+01  0.00000000E+00  0.00000000E+00
  4.48055469E+01  0.00000000E+00  0.00000000E+00  5.25970685E+01  0.00000000E+00
  0.00000000E+00  6.34434790E+01  0.00000000E+00  0.00000000E+00  7.40889554E+01
  0.00000000E+00  0.00000000E+00  7.55262188E+01  0.00000000E+00  0.00000000E+00
  6.14489937E+01  0.00000000E+00  0.00000000E+00  3.61022284E+01  0.00000000E+00
  0.00000000E+00  1.23257013E+01  0.00000000E+00  0.00000000E+00  1.83299478E+00
  0.00000000E+00  0.00000000E+00  4.43091392E-01  0.00000000E+00  0.00000000E+00
 -3.78542724E-02  0.00000000E+00  0.00000000E+00 -5.92260222E-02  0.00000000E+00
  0.00000000E+00 -5.63735332E-02  0.00000000E+00  0.00000000E+00  8.01920642E-02
  0.00000000E+00  0.00000000E+00  6.37371969E-02  0.00000000E+00  0.00000000E+00
 -6.57519972E-03  0.00000000E+00  0.00000000E+00  7.57513152E-04  0.00000000E+00
  0.00000000E+00 -6.87597293E-05  0.00000000E+00  0.00000000E+00  5.21238509E-06
  0.00000000E+00  0.00000000E+00  0.00000000E+00  0.00000000E+00  0.00000000E+00
  0.00000000E+00  0.00000000E+00  0.00000000E+00  0.00000000E+00  0.00000000E+00
  0.00000000E+00  0.00000000E+00  0.00000000E+00  0.00000000E+00  0.00000000E+00
  0.00000000E+00  0.00000000E+00  0.00000000E+00  0.00000000E+00  0.00000000E+00
  0.00000000E+00  0.00000000E+00  0.00000000E+00  0.00000000E+00  0.00000000E+00
  0.00000000E+00  0.00000000E+00  0.00000000E+00  0.00000000E+00  0.00000000E+00
  0.00000000E+00  0.00000000E+00  0.00000000E+00  0.00000000E+00  0.00000000E+00
  0.00000000E+00  0.00000000E+00  0.00000000E+00  0.00000000E+00  0.00000000E+00
  0.00000000E+00  0.00000000E+00  0.00000000E+00  0.00000000E+00  0.00000000E+00
  0.00000000E+00  0.00000000E+00  0.00000000E+00  0.00000000E+00  0.00000000E+00
  0.00000000E+00  0.00000000E+00  0.00000000E+00  0.00000000E+00  0.00000000E+00
  0.00000000E+00  0.00000000E+00  0.00000000E+00  0.00000000E+00  0.00000000E+00
  0.00000000E+00  0.00000000E+00  0.00000000E+00  0.00000000E+00  0.00000000E+00
  0.00000000E+00  0.00000000E+00  0.00000000E+00  0.00000000E+00  0.00000000E+00
  0.00000000E+00  0.00000000E+00  0.00000000E+00  0.00000000E+00  0.00000000E+00
  0.00000000E+00  0.00000000E+00  0.00000000E+00  0.00000000E+00  0.00000000E+00
  0.00000000E+00  0.00000000E+00  0.00000000E+00  0.00000000E+00  0.00000000E+00
  0.00000000E+00  0.00000000E+00  0.00000000E+00  0.00000000E+00  0.00000000E+00
  0.00000000E+00  0.00000000E+00  0.00000000E+00  0.00000000E+00  0.00000000E+00
  0.00000000E+00  0.00000000E+00
MO    6                     OCC NO =   1.00000000 ORB. ENERGY = -40.96281073
  0.00000000E+00  0.00000000E+00  0.00000000E+00  0.00000000E+00  0.00000000E+00
  0.00000000E+00  0.00000000E+00  0.00000000E+00  0.00000000E+00  0.00000000E+00
  0.00000000E+00  0.00000000E+00  0.00000000E+00  0.00000000E+00  0.00000000E+00
  0.00000000E+00  0.00000000E+00  0.00000000E+00  0.00000000E+00  0.00000000E+00
  0.00000000E+00  0.00000000E+00  0.00000000E+00  0.00000000E+00  0.00000000E+00
  8.69833906E+01  0.00000000E+00  0.00000000E+00  4.20255529E+01  0.00000000E+00
  0.00000000E+00  4.48055469E+01  0.00000000E+00  0.00000000E+00  5.25970685E+01
  0.00000000E+00  0.00000000E+00  6.34434790E+01  0.00000000E+00  0.00000000E+00
  7.40889554E+01  0.00000000E+00  0.00000000E+00  7.55262188E+01  0.00000000E+00
  0.00000000E+00  6.14489937E+01  0.00000000E+00  0.00000000E+00  3.61022284E+01
  0.00000000E+00  0.00000000E+00  1.23257013E+01  0.00000000E+00  0.00000000E+00
  1.83299478E+00  0.00000000E+00  0.00000000E+00  4.43091392E-01  0.00000000E+00
  0.00000000E+00 -3.78542724E-02  0.00000000E+00  0.00000000E+00 -5.92260222E-02
  0.00000000E+00  0.00000000E+00 -5.63735332E-02  0.00000000E+00  0.00000000E+00
  8.01920642E-02  0.00000000E+00  0.00000000E+00  6.37371969E-02  0.00000000E+00
  0.00000000E+00 -6.57519972E-03  0.00000000E+00  0.00000000E+00  7.57513152E-04
  0.00000000E+00  0.00000000E+00 -6.87597293E-05  0.00000000E+00  0.00000000E+00
  5.21238509E-06  0.00000000E+00  0.00000000E+00  0.00000000E+00  0.00000000E+00
  0.00000000E+00  0.00000000E+00  0.00000000E+00  0.00000000E+00  0.00000000E+00
  0.00000000E+00  0.00000000E+00  0.00000000E+00  0.00000000E+00  0.00000000E+00
  0.00000000E+00  0.00000000E+00  0.00000000E+00  0.00000000E+00  0.00000000E+00
  0.00000000E+00  0.00000000E+00  0.00000000E+00  0.00000000E+00  0.00000000E+00
  0.00000000E+00  0.00000000E+00  0.00000000E+00  0.00000000E+00  0.00000000E+00
  0.00000000E+00  0.00000000E+00  0.00000000E+00  0.00000000E+00  0.00000000E+00
  0.00000000E+00  0.00000000E+00  0.00000000E+00  0.00000000E+00  0.00000000E+00
  0.00000000E+00  0.00000000E+00  0.00000000E+00  0.00000000E+00  0.00000000E+00
  0.00000000E+00  0.00000000E+00  0.00000000E+00  0.00000000E+00  0.00000000E+00
  0.00000000E+00  0.00000000E+00  0.00000000E+00  0.00000000E+00  0.00000000E+00
  0.00000000E+00  0.00000000E+00  0.00000000E+00  0.00000000E+00  0.00000000E+00
  0.00000000E+00  0.00000000E+00  0.00000000E+00  0.00000000E+00  0.00000000E+00
  0.00000000E+00  0.00000000E+00  0.00000000E+00  0.00000000E+00  0.00000000E+00
  0.00000000E+00  0.00000000E+00  0.00000000E+00  0.00000000E+00  0.00000000E+00
  0.00000000E+00  0.00000000E+00  0.00000000E+00  0.00000000E+00  0.00000000E+00
  0.00000000E+00  0.00000000E+00  0.00000000E+00  0.00000000E+00  0.00000000E+00
  0.00000000E+00  0.00000000E+00  0.00000000E+00  0.00000000E+00  0.00000000E+00
  0.00000000E+00  0.00000000E+00  0.00000000E+00  0.00000000E+00  0.00000000E+00
  0.00000000E+00  0.00000000E+00
MO    7                     OCC NO =   1.00000000 ORB. ENERGY = -40.96281073
  0.00000000E+00  0.00000000E+00  0.00000000E+00  0.00000000E+00  0.00000000E+00
  0.00000000E+00  0.00000000E+00  0.00000000E+00  0.00000000E+00  0.00000000E+00
  0.00000000E+00  0.00000000E+00  0.00000000E+00  0.00000000E+00  0.00000000E+00
  0.00000000E+00  0.00000000E+00  0.00000000E+00  0.00000000E+00  0.00000000E+00
  0.00000000E+00  0.00000000E+00  0.00000000E+00  0.00000000E+00  0.00000000E+00
  0.00000000E+00  8.69833906E+01  0.00000000E+00  0.00000000E+00  4.20255529E+01
  0.00000000E+00  0.00000000E+00  4.48055469E+01  0.00000000E+00  0.00000000E+00
  5.25970685E+01  0.00000000E+00  0.00000000E+00  6.34434790E+01  0.00000000E+00
  0.00000000E+00  7.40889554E+01  0.00000000E+00  0.00000000E+00  7.55262188E+01
  0.00000000E+00  0.00000000E+00  6.14489937E+01  0.00000000E+00  0.00000000E+00
  3.61022284E+01  0.00000000E+00  0.00000000E+00  1.23257013E+01  0.00000000E+00
  0.00000000E+00  1.83299478E+00  0.00000000E+00  0.00000000E+00  4.43091392E-01
  0.00000000E+00  0.00000000E+00 -3.78542724E-02  0.00000000E+00  0.00000000E+00
 -5.92260222E-02  0.00000000E+00  0.00000000E+00 -5.63735332E-02  0.00000000E+00
  0.00000000E+00  8.01920642E-02  0.00000000E+00  0.00000000E+00  6.37371969E-02
  0.00000000E+00  0.00000000E+00 -6.57519972E-03  0.00000000E+00  0.00000000E+00
  7.57513152E-04  0.00000000E+00  0.00000000E+00 -6.87597293E-05  0.00000000E+00
  0.00000000E+00  5.21238509E-06  0.00000000E+00  0.00000000E+00  0.00000000E+00
  0.00000000E+00  0.00000000E+00  0.00000000E+00  0.00000000E+00  0.00000000E+00
  0.00000000E+00  0.00000000E+00  0.00000000E+00  0.00000000E+00  0.00000000E+00
  0.00000000E+00  0.00000000E+00  0.00000000E+00  0.00000000E+00  0.00000000E+00
  0.00000000E+00  0.00000000E+00  0.00000000E+00  0.00000000E+00  0.00000000E+00
  0.00000000E+00  0.00000000E+00  0.00000000E+00  0.00000000E+00  0.00000000E+00
  0.00000000E+00  0.00000000E+00  0.00000000E+00  0.00000000E+00  0.00000000E+00
  0.00000000E+00  0.00000000E+00  0.00000000E+00  0.00000000E+00  0.00000000E+00
  0.00000000E+00  0.00000000E+00  0.00000000E+00  0.00000000E+00  0.00000000E+00
  0.00000000E+00  0.00000000E+00  0.00000000E+00  0.00000000E+00  0.00000000E+00
  0.00000000E+00  0.00000000E+00  0.00000000E+00  0.00000000E+00  0.00000000E+00
  0.00000000E+00  0.00000000E+00  0.00000000E+00  0.00000000E+00  0.00000000E+00
  0.00000000E+00  0.00000000E+00  0.00000000E+00  0.00000000E+00  0.00000000E+00
  0.00000000E+00  0.00000000E+00  0.00000000E+00  0.00000000E+00  0.00000000E+00
  0.00000000E+00  0.00000000E+00  0.00000000E+00  0.00000000E+00  0.00000000E+00
  0.00000000E+00  0.00000000E+00  0.00000000E+00  0.00000000E+00  0.00000000E+00
  0.00000000E+00  0.00000000E+00  0.00000000E+00  0.00000000E+00  0.00000000E+00
  0.00000000E+00  0.00000000E+00  0.00000000E+00  0.00000000E+00  0.00000000E+00
  0.00000000E+00  0.00000000E+00  0.00000000E+00  0.00000000E+00  0.00000000E+00
  0.00000000E+00  0.00000000E+00
MO    8                     OCC NO =   1.00000000 ORB. ENERGY =  -3.86610635
  0.00000000E+00  0.00000000E+00  0.00000000E+00  0.00000000E+00  0.00000000E+00
  0.00000000E+00  0.00000000E+00  0.00000000E+00  0.00000000E+00  0.00000000E+00
  0.00000000E+00  0.00000000E+00  0.00000000E+00  0.00000000E+00  0.00000000E+00
  0.00000000E+00  0.00000000E+00  0.00000000E+00  0.00000000E+00  0.00000000E+00
  0.00000000E+00  0.00000000E+00  0.00000000E+00  0.00000000E+00 -3.36094853E+01
  0.00000000E+00  0.00000000E+00 -1.62382403E+01  0.00000000E+00  0.00000000E+00
 -1.73124014E+01  0.00000000E+00  0.00000000E+00 -2.03229650E+01  0.00000000E+00
  0.00000000E+00 -2.45139062E+01  0.00000000E+00  0.00000000E+00 -2.86272085E+01
  0.00000000E+00  0.00000000E+00 -2.91825523E+01  0.00000000E+00  0.00000000E+00
 -2.37432576E+01  0.00000000E+00  0.00000000E+00 -1.39495288E+01  0.00000000E+00
  0.00000000E+00 -4.76252388E+00  0.00000000E+00  0.00000000E+00 -7.08250285E-01
  0.00000000E+00  0.00000000E+00  6.57910546E-01  0.00000000E+00  0.00000000E+00
 -1.87972980E+00  0.00000000E+00  0.00000000E+00 -2.94098689E+00  0.00000000E+00
  0.00000000E+00 -2.79934083E+00  0.00000000E+00  0.00000000E+00  3.98209775E+00
  0.00000000E+00  0.00000000E+00  3.16499832E+00  0.00000000E+00  0.00000000E+00
  7.38783391E-01  0.00000000E+00  0.00000000E+00  2.66120719E-02  0.00000000E+00
  0.00000000E+00 -6.81603720E-04  0.00000000E+00  0.00000000E+00  4.94463675E-05
  0.00000000E+00  0.00000000E+00  0.00000000E+00  0.00000000E+00  0.00000000E+00
  0.00000000E+00  0.00000000E+00  0.00000000E+00  0.00000000E+00  0.00000000E+00
  0.00000000E+00  0.00000000E+00  0.00000000E+00  0.00000000E+00  0.00000000E+00
  0.00000000E+00  0.00000000E+00  0.00000000E+00  0.00000000E+00  0.00000000E+00
  0.00000000E+00  0.00000000E+00  0.00000000E+00  0.00000000E+00  0.00000000E+00
  0.00000000E+00  0.00000000E+00  0.00000000E+00  0.00000000E+00  0.00000000E+00
  0.00000000E+00  0.00000000E+00  0.00000000E+00  0.00000000E+00  0.00000000E+00
  0.00000000E+00  0.00000000E+00  0.00000000E+00  0.00000000E+00  0.00000000E+00
  0.00000000E+00  0.00000000E+00  0.00000000E+00  0.00000000E+00  0.00000000E+00
  0.00000000E+00  0.00000000E+00  0.00000000E+00  0.00000000E+00  0.00000000E+00
  0.00000000E+00  0.00000000E+00  0.00000000E+00  0.00000000E+00  0.00000000E+00
  0.00000000E+00  0.00000000E+00  0.00000000E+00  0.00000000E+00  0.00000000E+00
  0.00000000E+00  0.00000000E+00  0.00000000E+00  0.00000000E+00  0.00000000E+00
  0.00000000E+00  0.00000000E+00  0.00000000E+00  0.00000000E+00  0.00000000E+00
  0.00000000E+00  0.00000000E+00  0.00000000E+00  0.00000000E+00  0.00000000E+00
  0.00000000E+00  0.00000000E+00  0.00000000E+00  0.00000000E+00  0.00000000E+00
  0.00000000E+00  0.00000000E+00  0.00000000E+00  0.00000000E+00  0.00000000E+00
  0.00000000E+00  0.00000000E+00  0.00000000E+00  0.00000000E+00  0.00000000E+00
  0.00000000E+00  0.00000000E+00  0.00000000E+00  0.00000000E+00  0.00000000E+00
  0.00000000E+00  0.00000000E+00
MO    9                     OCC NO =   1.00000000 ORB. ENERGY =  -3.86610635
  0.00000000E+00  0.00000000E+00  0.00000000E+00  0.00000000E+00  0.00000000E+00
  0.00000000E+00  0.00000000E+00  0.00000000E+00  0.00000000E+00  0.00000000E+00
  0.00000000E+00  0.00000000E+00  0.00000000E+00  0.00000000E+00  0.00000000E+00
  0.00000000E+00  0.00000000E+00  0.00000000E+00  0.00000000E+00  0.00000000E+00
  0.00000000E+00  0.00000000E+00  0.00000000E+00  0.00000000E+00  0.00000000E+00
 -3.36094853E+01  0.00000000E+00  0.00000000E+00 -1.62382403E+01  0.00000000E+00
  0.00000000E+00 -1.73124014E+01  0.00000000E+00  0.00000000E+00 -2.03229650E+01
  0.00000000E+00  0.00000000E+00 -2.45139062E+01  0.00000000E+00  0.00000000E+00
 -2.86272085E+01  0.00000000E+00  0.00000000E+00 -2.91825523E+01  0.00000000E+00
  0.00000000E+00 -2.37432576E+01  0.00000000E+00  0.00000000E+00 -1.39495288E+01
  0.00000000E+00  0.00000000E+00 -4.76252388E+00  0.00000000E+00  0.00000000E+00
 -7.08250285E-01  0.00000000E+00  0.00000000E+00  6.57910546E-01  0.00000000E+00
  0.00000000E+00 -1.87972980E+00  0.00000000E+00  0.00000000E+00 -2.94098689E+00