atomref-proatoms Gd_q0_mult9_nist x2c-QZVPall
GAUSSIAN             68 MOL ORBITALS    437 PRIMITIVES        1 NUCLEI
  Gd   1    (CENTRE  1)   0.00000000  0.00000000  0.00000000  CHARGE = 64.0
CENTRE ASSIGNMENTS    1  1  1  1  1  1  1  1  1  1  1  1  1  1  1  1  1  1  1  1
CENTRE ASSIGNMENTS    1  1  1  1  1  1  1  1  1  1  1  1  1  1  1  1  1  1  1  1
CENTRE ASSIGNMENTS    1  1  1  1  1  1  1  1  1  1  1  1  1  1  1  1  1  1  1  1
CENTRE ASSIGNMENTS    1  1  1  1  1  1  1  1  1  1  1  1  1  1  1  1  1  1  1  1
CENTRE ASSIGNMENTS    1  1  1  1  1  1  1  1  1  1  1  1  1  1  1  1  1  1  1  1
CENTRE ASSIGNMENTS    1  1  1  1  1  1  1  1  1  1  1  1  1  1  1  1  1  1  1  1
CENTRE ASSIGNMENTS    1  1  1  1  1  1  1  1  1  1  1  1  1  1  1  1  1  1  1  1
CENTRE ASSIGNMENTS    1  1  1  1  1  1  1  1  1  1  1  1  1  1  1  1  1  1  1  1
CENTRE ASSIGNMENTS    1  1  1  1  1  1  1  1  1  1  1  1  1  1  1  1  1  1  1  1
CENTRE ASSIGNMENTS    1  1  1  1  1  1  1  1  1  1  1  1  1  1  1  1  1  1  1  1
CENTRE ASSIGNMENTS    1  1  1  1  1  1  1  1  1  1  1  1  1  1  1  1  1  1  1  1
CENTRE ASSIGNMENTS    1  1  1  1  1  1  1  1  1  1  1  1  1  1  1  1  1  1  1  1
CENTRE ASSIGNMENTS    1  1  1  1  1  1  1  1  1  1  1  1  1  1  1  1  1  1  1  1
CENTRE ASSIGNMENTS    1  1  1  1  1  1  1  1  1  1  1  1  1  1  1  1  1  1  1  1
CENTRE ASSIGNMENTS    1  1  1  1  1  1  1  1  1  1  1  1  1  1  1  1  1  1  1  1
CENTRE ASSIGNMENTS    1  1  1  1  1  1  1  1  1  1  1  1  1  1  1  1  1  1  1  1
CENTRE ASSIGNMENTS    1  1  1  1  1  1  1  1  1  1  1  1  1  1  1  1  1  1  1  1
CENTRE ASSIGNMENTS    1  1  1  1  1  1  1  1  1  1  1  1  1  1  1  1  1  1  1  1
CENTRE ASSIGNMENTS    1  1  1  1  1  1  1  1  1  1  1  1  1  1  1  1  1  1  1  1
CENTRE ASSIGNMENTS    1  1  1  1  1  1  1  1  1  1  1  1  1  1  1  1  1  1  1  1
CENTRE ASSIGNMENTS    1  1  1  1  1  1  1  1  1  1  1  1  1  1  1  1  1  1  1  1
CENTRE ASSIGNMENTS    1  1  1  1  1  1  1  1  1  1  1  1  1  1  1  1  1
TYPE ASSIGNMENTS      1  1  1  1  1  1  1  1  1  1  1  1  1  1  1  1  1  1  1  1
TYPE ASSIGNMENTS      1  1  1  1  1  1  1  1  1  1  2  3  4  2  3  4  2  3  4  2
TYPE ASSIGNMENTS      3  4  2  3  4  2  3  4  2  3  4  2  3  4  2  3  4  2  3  4
TYPE ASSIGNMENTS      2  3  4  2  3  4  2  3  4  2  3  4  2  3  4  2  3  4  2  3
TYPE ASSIGNMENTS      4  2  3  4  2  3  4  2  3  4  2  3  4  2  3  4  2  3  4  2
TYPE ASSIGNMENTS      3  4  2  3  4  2  3  4  2  3  4  2  3  4  2  3  4  2  3  4
TYPE ASSIGNMENTS      2  3  4  2  3  4  2  3  4  2  3  4  5  8  9  6 10  7  5  8
TYPE ASSIGNMENTS      9  6 10  7  5  8  9  6 10  7  5  8  9  6 10  7  5  8  9  6
TYPE ASSIGNMENTS     10  7  5  8  9  6 10  7  5  8  9  6 10  7  5  8  9  6 10  7
TYPE ASSIGNMENTS      5  8  9  6 10  7  5  8  9  6 10  7  5  8  9  6 10  7  5  8
TYPE ASSIGNMENTS      9  6 10  7  5  8  9  6 10  7  5  8  9  6 10  7  5  8  9  6
TYPE ASSIGNMENTS     10  7  5  8  9  6 10  7  5  8  9  6 10  7  5  8  9  6 10  7
TYPE ASSIGNMENTS      5  8  9  6 10  7  5  8  9  6 10  7 11 14 15 17 20 18 12 16
TYPE ASSIGNMENTS     19 13 11 14 15 17 20 18 12 16 19 13 11 14 15 17 20 18 12 16
TYPE ASSIGNMENTS     19 13 11 14 15 17 20 18 12 16 19 13 11 14 15 17 20 18 12 16
TYPE ASSIGNMENTS     19 13 11 14 15 17 20 18 12 16 19 13 11 14 15 17 20 18 12 16
TYPE ASSIGNMENTS     19 13 11 14 15 17 20 18 12 16 19 13 11 14 15 17 20 18 12 16
TYPE ASSIGNMENTS     19 13 11 14 15 17 20 18 12 16 19 13 11 14 15 17 20 18 12 16
TYPE ASSIGNMENTS     19 13 21 24 25 30 33 31 26 34 35 28 22 27 32 29 23 21 24 25
TYPE ASSIGNMENTS     30 33 31 26 34 35 28 22 27 32 29 23 21 24 25 30 33 31 26 34
TYPE ASSIGNMENTS     35 28 22 27 32 29 23 21 24 25 30 33 31 26 34 35 28 22 27 32
TYPE ASSIGNMENTS     29 23 21 24 25 30 33 31 26 34 35 28 22 27 32 29 23
EXPONENTS  7.2256970E+07 1.9407530E+07 5.8309328E+06 1.8002575E+06 6.0281816E+05
EXPONENTS  2.1515899E+05 8.1287383E+04 3.2081136E+04 1.3560963E+04 6.0942941E+03
EXPONENTS  2.8234589E+03 1.1426269E+03 5.7136913E+04 1.3540443E+04 4.3045800E+03
EXPONENTS  1.5854586E+03 6.3851673E+02 3.8859009E+02 1.4192789E+02 7.5637715E+01
EXPONENTS  4.4445832E+01 2.0617700E+01 1.0854445E+01 5.1040400E+00 2.5554180E+00
EXPONENTS  1.0695542E+00 5.2815548E-01 2.3302187E-01 7.4327588E-02 2.8253095E-02
EXPONENTS  1.8670000E+02 1.8670000E+02 1.8670000E+02 3.9429654E+06 3.9429654E+06
EXPONENTS  3.9429654E+06 1.1127737E+06 1.1127737E+06 1.1127737E+06 3.3225873E+05
EXPONENTS  3.3225873E+05 3.3225873E+05 1.0496188E+05 1.0496188E+05 1.0496188E+05
EXPONENTS  3.5081043E+04 3.5081043E+04 3.5081043E+04 1.2405065E+04 1.2405065E+04
EXPONENTS  1.2405065E+04 4.6409968E+03 4.6409968E+03 4.6409968E+03 1.8368107E+03
EXPONENTS  1.8368107E+03 1.8368107E+03 7.5982430E+02 7.5982430E+02 7.5982430E+02
EXPONENTS  3.3874751E+02 3.3874751E+02 3.3874751E+02 1.6178367E+02 1.6178367E+02
EXPONENTS  1.6178367E+02 8.0698561E+01 8.0698561E+01 8.0698561E+01 3.9957574E+01
EXPONENTS  3.9957574E+01 3.9957574E+01 1.2285109E+03 1.2285109E+03 1.2285109E+03
EXPONENTS  4.2348154E+02 4.2348154E+02 4.2348154E+02 1.8675076E+02 1.8675076E+02
EXPONENTS  1.8675076E+02 4.6904313E+01 4.6904313E+01 4.6904313E+01 2.4317028E+01
EXPONENTS  2.4317028E+01 2.4317028E+01 1.2515036E+01 1.2515036E+01 1.2515036E+01
EXPONENTS  5.5938571E+00 5.5938571E+00 5.5938571E+00 7.1187228E+01 7.1187228E+01
EXPONENTS  7.1187228E+01 2.4633709E+01 2.4633709E+01 2.4633709E+01 7.4531005E+00
EXPONENTS  7.4531005E+00 7.4531005E+00 4.0533717E+00 4.0533717E+00 4.0533717E+00
EXPONENTS  2.0252157E+00 2.0252157E+00 2.0252157E+00 3.6347262E+00 3.6347262E+00
EXPONENTS  3.6347262E+00 1.1760640E+00 1.1760640E+00 1.1760640E+00 6.3990698E-01
EXPONENTS  6.3990698E-01 6.3990698E-01 7.3550772E-01 7.3550772E-01 7.3550772E-01
EXPONENTS  3.0386849E-01 3.0386849E-01 3.0386849E-01 1.2915991E-01 1.2915991E-01
EXPONENTS  1.2915991E-01 6.7620492E-02 6.7620492E-02 6.7620492E-02 2.0518167E-02
EXPONENTS  2.0518167E-02 2.0518167E-02 4.3356788E+03 4.3356788E+03 4.3356788E+03
EXPONENTS  4.3356788E+03 4.3356788E+03 4.3356788E+03 1.2308986E+03 1.2308986E+03
EXPONENTS  1.2308986E+03 1.2308986E+03 1.2308986E+03 1.2308986E+03 4.7524194E+02
EXPONENTS  4.7524194E+02 4.7524194E+02 4.7524194E+02 4.7524194E+02 4.7524194E+02
EXPONENTS  2.0974840E+02 2.0974840E+02 2.0974840E+02 2.0974840E+02 2.0974840E+02
EXPONENTS  2.0974840E+02 1.0094041E+02 1.0094041E+02 1.0094041E+02 1.0094041E+02
EXPONENTS  1.0094041E+02 1.0094041E+02 5.0495576E+01 5.0495576E+01 5.0495576E+01
EXPONENTS  5.0495576E+01 5.0495576E+01 5.0495576E+01 2.5348613E+01 2.5348613E+01
EXPONENTS  2.5348613E+01 2.5348613E+01 2.5348613E+01 2.5348613E+01 1.2800747E+01
EXPONENTS  1.2800747E+01 1.2800747E+01 1.2800747E+01 1.2800747E+01 1.2800747E+01
EXPONENTS  2.6000000E+01 2.6000000E+01 2.6000000E+01 2.6000000E+01 2.6000000E+01
EXPONENTS  2.6000000E+01 2.1913728E+02 2.1913728E+02 2.1913728E+02 2.1913728E+02
EXPONENTS  2.1913728E+02 2.1913728E+02 8.4648302E+01 8.4648302E+01 8.4648302E+01
EXPONENTS  8.4648302E+01 8.4648302E+01 8.4648302E+01 1.5668704E+01 1.5668704E+01
EXPONENTS  1.5668704E+01 1.5668704E+01 1.5668704E+01 1.5668704E+01 5.9506930E+00
EXPONENTS  5.9506930E+00 5.9506930E+00 5.9506930E+00 5.9506930E+00 5.9506930E+00
EXPONENTS  9.2958451E+00 9.2958451E+00 9.2958451E+00 9.2958451E+00 9.2958451E+00
EXPONENTS  9.2958451E+00 3.3450569E+00 3.3450569E+00 3.3450569E+00 3.3450569E+00
EXPONENTS  3.3450569E+00 3.3450569E+00 1.7073681E+00 1.7073681E+00 1.7073681E+00
EXPONENTS  1.7073681E+00 1.7073681E+00 1.7073681E+00 7.5703161E-01 7.5703161E-01
EXPONENTS  7.5703161E-01 7.5703161E-01 7.5703161E-01 7.5703161E-01 3.0746048E-01
EXPONENTS  3.0746048E-01 3.0746048E-01 3.0746048E-01 3.0746048E-01 3.0746048E-01
EXPONENTS  1.1923498E-01 1.1923498E-01 1.1923498E-01 1.1923498E-01 1.1923498E-01
EXPONENTS  1.1923498E-01 4.0141107E-02 4.0141107E-02 4.0141107E-02 4.0141107E-02
EXPONENTS  4.0141107E-02 4.0141107E-02 2.1319669E+02 2.1319669E+02 2.1319669E+02
EXPONENTS  2.1319669E+02 2.1319669E+02 2.1319669E+02 2.1319669E+02 2.1319669E+02
EXPONENTS  2.1319669E+02 2.1319669E+02 8.3466768E+01 8.3466768E+01 8.3466768E+01
EXPONENTS  8.3466768E+01 8.3466768E+01 8.3466768E+01 8.3466768E+01 8.3466768E+01
EXPONENTS  8.3466768E+01 8.3466768E+01 4.1496281E+01 4.1496281E+01 4.1496281E+01
EXPONENTS  4.1496281E+01 4.1496281E+01 4.1496281E+01 4.1496281E+01 4.1496281E+01
EXPONENTS  4.1496281E+01 4.1496281E+01 2.0802642E+01 2.0802642E+01 2.0802642E+01
EXPONENTS  2.0802642E+01 2.0802642E+01 2.0802642E+01 2.0802642E+01 2.0802642E+01
EXPONENTS  2.0802642E+01 2.0802642E+01 1.0437061E+01 1.0437061E+01 1.0437061E+01
EXPONENTS  1.0437061E+01 1.0437061E+01 1.0437061E+01 1.0437061E+01 1.0437061E+01
EXPONENTS  1.0437061E+01 1.0437061E+01 5.2759916E+00 5.2759916E+00 5.2759916E+00
EXPONENTS  5.2759916E+00 5.2759916E+00 5.2759916E+00 5.2759916E+00 5.2759916E+00
EXPONENTS  5.2759916E+00 5.2759916E+00 2.6410517E+00 2.6410517E+00 2.6410517E+00
EXPONENTS  2.6410517E+00 2.6410517E+00 2.6410517E+00 2.6410517E+00 2.6410517E+00
EXPONENTS  2.6410517E+00 2.6410517E+00 1.2688079E+00 1.2688079E+00 1.2688079E+00
EXPONENTS  1.2688079E+00 1.2688079E+00 1.2688079E+00 1.2688079E+00 1.2688079E+00
EXPONENTS  1.2688079E+00 1.2688079E+00 5.7695533E-01 5.7695533E-01 5.7695533E-01
EXPONENTS  5.7695533E-01 5.7695533E-01 5.7695533E-01 5.7695533E-01 5.7695533E-01
EXPONENTS  5.7695533E-01 5.7695533E-01 2.3739994E-01 2.3739994E-01 2.3739994E-01
EXPONENTS  2.3739994E-01 2.3739994E-01 2.3739994E-01 2.3739994E-01 2.3739994E-01
EXPONENTS  2.3739994E-01 2.3739994E-01 7.9000000E-02 7.9000000E-02 7.9000000E-02
EXPONENTS  7.9000000E-02 7.9000000E-02 7.9000000E-02 7.9000000E-02 7.9000000E-02
EXPONENTS  7.9000000E-02 7.9000000E-02 2.0888200E+01 2.0888200E+01 2.0888200E+01
EXPONENTS  2.0888200E+01 2.0888200E+01 2.0888200E+01 2.0888200E+01 2.0888200E+01
EXPONENTS  2.0888200E+01 2.0888200E+01 2.0888200E+01 2.0888200E+01 2.0888200E+01
EXPONENTS  2.0888200E+01 2.0888200E+01 9.5233000E+00 9.5233000E+00 9.5233000E+00
EXPONENTS  9.5233000E+00 9.5233000E+00 9.5233000E+00 9.5233000E+00 9.5233000E+00
EXPONENTS  9.5233000E+00 9.5233000E+00 9.5233000E+00 9.5233000E+00 9.5233000E+00
EXPONENTS  9.5233000E+00 9.5233000E+00 4.3476000E+00 4.3476000E+00 4.3476000E+00
EXPONENTS  4.3476000E+00 4.3476000E+00 4.3476000E+00 4.3476000E+00 4.3476000E+00
EXPONENTS  4.3476000E+00 4.3476000E+00 4.3476000E+00 4.3476000E+00 4.3476000E+00
EXPONENTS  4.3476000E+00 4.3476000E+00 1.9241000E+00 1.9241000E+00 1.9241000E+00
EXPONENTS  1.9241000E+00 1.9241000E+00 1.9241000E+00 1.9241000E+00 1.9241000E+00
EXPONENTS  1.9241000E+00 1.9241000E+00 1.9241000E+00 1.9241000E+00 1.9241000E+00
EXPONENTS  1.9241000E+00 1.9241000E+00 4.7570000E-01 4.7570000E-01 4.7570000E-01
EXPONENTS  4.7570000E-01 4.7570000E-01 4.7570000E-01 4.7570000E-01 4.7570000E-01
EXPONENTS  4.7570000E-01 4.7570000E-01 4.7570000E-01 4.7570000E-01 4.7570000E-01
EXPONENTS  4.7570000E-01 4.7570000E-01
MO    1                     OCC NO =   1.00000000 ORB. ENERGY = -1841.41340706
  9.95393328E+01  9.72433005E+01  8.81942942E+01  7.66522648E+01  6.71842630E+01
  6.17134623E+01  5.80556688E+01  5.69146187E+01  5.57731014E+01  4.99388858E+01
  4.66177138E+01  3.00321915E+01  2.81969303E+00  6.12026150E+00  1.46216930E+01
  2.57163670E+01  1.83090589E+01  9.91135759E+00  1.33308076E+00 -5.31826017E-01
  2.29943443E-01 -6.60441355E-02  2.61091205E-02 -8.24615736E-03  2.74520252E-03
 -7.49542920E-04  2.57461154E-04 -5.20766939E-05  6.72252446E-06 -1.01346160E-06
  0.00000000E+00  0.00000000E+00  0.00000000E+00  0.00000000E+00  0.00000000E+00
  0.00000000E+00  0.00000000E+00  0.00000000E+00  0.00000000E+00  0.00000000E+00
  0.00000000E+00  0.00000000E+00  0.00000000E+00  0.00000000E+00  0.00000000E+00
  0.00000000E+00  0.00000000E+00  0.00000000E+00  0.00000000E+00  0.00000000E+00
  0.00000000E+00  0.00000000E+00  0.00000000E+00  0.00000000E+00  0.00000000E+00
  0.00000000E+00  0.00000000E+00  0.00000000E+00  0.00000000E+00  0.00000000E+00
  0.00000000E+00  0.00000000E+00  0.00000000E+00  0.00000000E+00  0.00000000E+00
  0.00000000E+00  0.00000000E+00  0.00000000E+00  0.00000000E+00  0.00000000E+00
  0.00000000E+00  0.00000000E+00  0.00000000E+00  0.00000000E+00  0.00000000E+00
  0.00000000E+00  0.00000000E+00  0.00000000E+00  0.00000000E+00  0.00000000E+00
  0.00000000E+00  0.00000000E+00  0.00000000E+00  0.00000000E+00  0.00000000E+00
  0.00000000E+00  0.00000000E+00  0.00000000E+00  0.00000000E+00  0.00000000E+00
  0.00000000E+00  0.00000000E+00  0.00000000E+00  0.00000000E+00  0.00000000E+00
  0.00000000E+00  0.00000000E+00  0.00000000E+00  0.00000000E+00  0.00000000E+00
  0.00000000E+00  0.00000000E+00  0.00000000E+00  0.00000000E+00  0.00000000E+00
  0.00000000E+00  0.00000000E+00  0.00000000E+00  0.00000000E+00  0.00000000E+00
  0.00000000E+00  0.00000000E+00  0.00000000E+00  0.00000000E+00  0.00000000E+00
  0.00000000E+00  0.00000000E+00  0.00000000E+00  0.00000000E+00  0.00000000E+00
  0.00000000E+00  0.00000000E+00  0.00000000E+00  0.00000000E+00  0.00000000E+00
  0.00000000E+00  0.00000000E+00  0.00000000E+00  0.00000000E+00  0.00000000E+00
  0.00000000E+00  0.00000000E+00  0.00000000E+00  0.00000000E+00  0.00000000E+00
  0.00000000E+00  0.00000000E+00  0.00000000E+00  0.00000000E+00  0.00000000E+00
  0.00000000E+00  0.00000000E+00  0.00000000E+00  0.00000000E+00  0.00000000E+00
  0.00000000E+00  0.00000000E+00  0.00000000E+00  0.00000000E+00  0.00000000E+00
  0.00000000E+00  0.00000000E+00  0.00000000E+00  0.00000000E+00  0.00000000E+00
  0.00000000E+00  0.00000000E+00  0.00000000E+00  0.00000000E+00  0.00000000E+00
  0.00000000E+00  0.00000000E+00  0.00000000E+00  0.00000000E+00  0.00000000E+00
  0.00000000E+00  0.00000000E+00  0.00000000E+00  0.00000000E+00  0.00000000E+00
  0.00000000E+00  0.00000000E+00  0.00000000E+00  0.00000000E+00  0.00000000E+00
  0.00000000E+00  0.00000000E+00  0.00000000E+00  0.00000000E+00  0.00000000E+00
  0.00000000E+00  0.00000000E+00  0.00000000E+00  0.00000000E+00  0.00000000E+00
  0.00000000E+00  0.00000000E+00  0.00000000E+00  0.00000000E+00  0.00000000E+00
  0.00000000E+00  0.00000000E+00  0.00000000E+00  0.00000000E+00  0.00000000E+00
  0.00000000E+00  0.00000000E+00  0.00000000E+00  0.00000000E+00  0.00000000E+00
  0.00000000E+00  0.00000000E+00  0.00000000E+00  0.00000000E+00  0.00000000E+00
  0.00000000E+00  0.00000000E+00  0.00000000E+00  0.00000000E+00  0.00000000E+00
  0.00000000E+00  0.00000000E+00  0.00000000E+00  0.00000000E+00  0.00000000E+00
  0.00000000E+00  0.00000000E+00  0.00000000E+00  0.00000000E+00  0.00000000E+00
  0.00000000E+00  0.00000000E+00  0.00000000E+00  0.00000000E+00  0.00000000E+00
  0.00000000E+00  0.00000000E+00  0.00000000E+00  0.00000000E+00  0.00000000E+00
  0.00000000E+00  0.00000000E+00  0.00000000E+00  0.00000000E+00  0.00000000E+00
  0.00000000E+00  0.00000000E+00  0.00000000E+00  0.00000000E+00  0.00000000E+00
  0.00000000E+00  0.00000000E+00  0.00000000E+00  0.00000000E+00  0.00000000E+00
  0.00000000E+00  0.00000000E+00  0.00000000E+00  0.00000000E+00  0.00000000E+00
  0.00000000E+00  0.00000000E+00  0.00000000E+00  0.00000000E+00  0.00000000E+00
  0.00000000E+00  0.00000000E+00  0.00000000E+00  0.00000000E+00  0.00000000E+00
  0.00000000E+00  0.00000000E+00  0.00000000E+00  0.00000000E+00  0.00000000E+00
  0.00000000E+00  0.00000000E+00  0.00000000E+00  0.00000000E+00  0.00000000E+00
  0.00000000E+00  0.00000000E+00  0.00000000E+00  0.00000000E+00  0.00000000E+00
  0.00000000E+00  0.00000000E+00  0.00000000E+00  0.00000000E+00  0.00000000E+00
  0.00000000E+00  0.00000000E+00  0.00000000E+00  0.00000000E+00  0.00000000E+00
  0.00000000E+00  0.00000000E+00  0.00000000E+00  0.00000000E+00  0.00000000E+00
  0.00000000E+00  0.00000000E+00  0.00000000E+00  0.00000000E+00  0.00000000E+00
  0.00000000E+00  0.00000000E+00  0.00000000E+00  0.00000000E+00  0.00000000E+00
  0.00000000E+00  0.00000000E+00  0.00000000E+00  0.00000000E+00  0.00000000E+00
  0.00000000E+00  0.00000000E+00  0.00000000E+00  0.00000000E+00  0.00000000E+00
  0.00000000E+00  0.00000000E+00  0.00000000E+00  0.00000000E+00  0.00000000E+00
  0.00000000E+00  0.00000000E+00  0.00000000E+00  0.00000000E+00  0.00000000E+00
  0.00000000E+00  0.00000000E+00  0.00000000E+00  0.00000000E+00  0.00000000E+00
  0.00000000E+00  0.00000000E+00  0.00000000E+00  0.00000000E+00  0.00000000E+00
  0.00000000E+00  0.00000000E+00  0.00000000E+00  0.00000000E+00  0.00000000E+00
  0.00000000E+00  0.00000000E+00  0.00000000E+00  0.00000000E+00  0.00000000E+00
  0.00000000E+00  0.00000000E+00  0.00000000E+00  0.00000000E+00  0.00000000E+00
  0.00000000E+00  0.00000000E+00  0.00000000E+00  0.00000000E+00  0.00000000E+00
  0.00000000E+00  0.00000000E+00  0.00000000E+00  0.00000000E+00  0.00000000E+00
  0.00000000E+00  0.00000000E+00  0.00000000E+00  0.00000000E+00  0.00000000E+00
  0.00000000E+00  0.00000000E+00  0.00000000E+00  0.00000000E+00  0.00000000E+00
  0.00000000E+00  0.00000000E+00  0.00000000E+00  0.00000000E+00  0.00000000E+00
  0.00000000E+00  0.00000000E+00  0.00000000E+00  0.00000000E+00  0.00000000E+00
  0.00000000E+00  0.00000000E+00  0.00000000E+00  0.00000000E+00  0.00000000E+00
  0.00000000E+00  0.00000000E+00  0.00000000E+00  0.00000000E+00  0.00000000E+00
  0.00000000E+00  0.00000000E+00  0.00000000E+00  0.00000000E+00  0.00000000E+00
  0.00000000E+00  0.00000000E+00  0.00000000E+00  0.00000000E+00  0.00000000E+00
  0.00000000E+00  0.00000000E+00  0.00000000E+00  0.00000000E+00  0.00000000E+00
  0.00000000E+00  0.00000000E+00  0.00000000E+00  0.00000000E+00  0.00000000E+00
  0.00000000E+00  0.00000000E+00  0.00000000E+00  0.00000000E+00  0.00000000E+00
  0.00000000E+00  0.00000000E+00  0.00000000E+00  0.00000000E+00  0.00000000E+00
  0.00000000E+00  0.00000000E+00  0.00000000E+00  0.00000000E+00  0.00000000E+00
  0.00000000E+00  0.00000000E+00  0.00000000E+00  0.00000000E+00  0.00000000E+00
  0.00000000E+00  0.00000000E+00  0.00000000E+00  0.00000000E+00  0.00000000E+00
  0.00000000E+00  0.00000000E+00  0.00000000E+00  0.00000000E+00  0.00000000E+00
  0.00000000E+00  0.00000000E+00
MO    2                     OCC NO =   1.00000000 ORB. ENERGY = -305.13115492
 -3.68007077E+01 -3.59518411E+01 -3.26063311E+01 -2.83391250E+01 -2.48387080E+01
 -2.28160971E+01 -2.14637736E+01 -2.10419157E+01 -2.06198851E+01 -1.84629160E+01
 -1.72350448E+01 -1.11032079E+01 -1.90069734E+00 -4.12554298E+00 -9.85618393E+00
 -1.73348765E+01 -1.62602404E+01 -1.02248009E+00  1.26219959E+01  8.29055205E+00
  2.79036114E+00  2.00053862E-01 -2.27540946E-02  4.78045268E-03 -1.40125833E-03
  3.46793715E-04 -1.14696043E-04  2.29806160E-05 -2.93951649E-06  4.42284571E-07
  0.00000000E+00  0.00000000E+00  0.00000000E+00  0.00000000E+00  0.00000000E+00
  0.00000000E+00  0.00000000E+00  0.00000000E+00  0.00000000E+00  0.00000000E+00
  0.00000000E+00  0.00000000E+00  0.00000000E+00  0.00000000E+00  0.00000000E+00
  0.00000000E+00  0.00000000E+00  0.00000000E+00  0.00000000E+00  0.00000000E+00
  0.00000000E+00  0.00000000E+00  0.00000000E+00  0.00000000E+00  0.00000000E+00
  0.00000000E+00  0.00000000E+00  0.00000000E+00  0.00000000E+00  0.00000000E+00
  0.00000000E+00  0.00000000E+00  0.00000000E+00  0.00000000E+00  0.00000000E+00
  0.00000000E+00  0.00000000E+00  0.00000000E+00  0.00000000E+00  0.00000000E+00
  0.00000000E+00  0.00000000E+00  0.00000000E+00  0.00000000E+00  0.00000000E+00
  0.00000000E+00  0.00000000E+00  0.00000000E+00  0.00000000E+00  0.00000000E+00
  0.00000000E+00  0.00000000E+00  0.00000000E+00  0.00000000E+00  0.00000000E+00
  0.00000000E+00  0.00000000E+00  0.00000000E+00  0.00000000E+00  0.00000000E+00
  0.00000000E+00  0.00000000E+00  0.00000000E+00  0.00000000E+00  0.00000000E+00
  0.00000000E+00  0.00000000E+00  0.00000000E+00  0.00000000E+00  0.00000000E+00
  0.00000000E+00  0.00000000E+00  0.00000000E+00  0.00000000E+00  0.00000000E+00
  0.00000000E+00  0.00000000E+00  0.00000000E+00  0.00000000E+00  0.00000000E+00
  0.00000000E+00  0.00000000E+00  0.00000000E+00  0.00000000E+00  0.00000000E+00
  0.00000000E+00  0.00000000E+00  0.00000000E+00  0.00000000E+00  0.00000000E+00
  0.00000000E+00  0.00000000E+00  0.00000000E+00  0.00000000E+00  0.00000000E+00
  0.00000000E+00  0.00000000E+00  0.00000000E+00  0.00000000E+00  0.00000000E+00
  0.00000000E+00  0.00000000E+00  0.00000000E+00  0.00000000E+00  0.00000000E+00
  0.00000000E+00  0.00000000E+00  0.00000000E+00  0.00000000E+00  0.00000000E+00
  0.00000000E+00  0.00000000E+00  0.00000000E+00  0.00000000E+00  0.00000000E+00
  0.00000000E+00  0.00000000E+00  0.00000000E+00  0.00000000E+00  0.00000000E+00
  0.00000000E+00  0.00000000E+00  0.00000000E+00  0.00000000E+00  0.00000000E+00
  0.00000000E+00  0.00000000E+00  0.00000000E+00  0.00000000E+00  0.00000000E+00
  0.00000000E+00  0.00000000E+00  0.00000000E+00  0.00000000E+00  0.00000000E+00
  0.00000000E+00  0.00000000E+00  0.00000000E+00  0.00000000E+00  0.00000000E+00
  0.00000000E+00  0.00000000E+00  0.00000000E+00  0.00000000E+00  0.00000000E+00
  0.00000000E+00  0.00000000E+00  0.00000000E+00  0.00000000E+00  0.00000000E+00
  0.00000000E+00  0.00000000E+00  0.00000000E+00  0.00000000E+00  0.00000000E+00
  0.00000000E+00  0.00000000E+00  0.00000000E+00  0.00000000E+00  0.00000000E+00
  0.00000000E+00  0.00000000E+00  0.00000000E+00  0.00000000E+00  0.00000000E+00
  0.00000000E+00  0.00000000E+00  0.00000000E+00  0.00000000E+00  0.00000000E+00
  0.00000000E+00  0.00000000E+00  0.00000000E+00  0.00000000E+00  0.00000000E+00
  0.00000000E+00  0.00000000E+00  0.00000000E+00  0.00000000E+00  0.00000000E+00
  0.00000000E+00  0.00000000E+00  0.00000000E+00  0.00000000E+00  0.00000000E+00
  0.00000000E+00  0.00000000E+00  0.00000000E+00  0.00000000E+00  0.00000000E+00
  0.00000000E+00  0.00000000E+00  0.00000000E+00  0.00000000E+00  0.00000000E+00
  0.00000000E+00  0.00000000E+00  0.00000000E+00  0.00000000E+00  0.00000000E+00
  0.00000000E+00  0.00000000E+00  0.00000000E+00  0.00000000E+00  0.00000000E+00
  0.00000000E+00  0.00000000E+00  0.00000000E+00  0.00000000E+00  0.00000000E+00
  0.00000000E+00  0.00000000E+00  0.00000000E+00  0.00000000E+00  0.00000000E+00
  0.00000000E+00  0.00000000E+00  0.00000000E+00  0.00000000E+00  0.00000000E+00
  0.00000000E+00  0.00000000E+00  0.00000000E+00  0.00000000E+00  0.00000000E+00
  0.00000000E+00  0.00000000E+00  0.00000000E+00  0.00000000E+00  0.00000000E+00
  0.00000000E+00  0.00000000E+00  0.00000000E+00  0.00000000E+00  0.00000000E+00
  0.00000000E+00  0.00000000E+00  0.00000000E+00  0.00000000E+00  0.00000000E+00
  0.00000000E+00  0.00000000E+00  0.00000000E+00  0.00000000E+00  0.00000000E+00
  0.00000000E+00  0.00000000E+00  0.00000000E+00  0.00000000E+00  0.00000000E+00
  0.00000000E+00  0.00000000E+00  0.00000000E+00  0.00000000E+00  0.00000000E+00
  0.00000000E+00  0.00000000E+00  0.00000000E+00  0.00000000E+00  0.00000000E+00
  0.00000000E+00  0.00000000E+00  0.00000000E+00  0.00000000E+00  0.00000000E+00
  0.00000000E+00  0.00000000E+00  0.00000000E+00  0.00000000E+00  0.00000000E+00
  0.00000000E+00  0.00000000E+00  0.00000000E+00  0.00000000E+00  0.00000000E+00
  0.00000000E+00  0.00000000E+00  0.00000000E+00  0.00000000E+00  0.00000000E+00
  0.00000000E+00  0.00000000E+00  0.00000000E+00  0.00000000E+00  0.00000000E+00
  0.00000000E+00  0.00000000E+00  0.00000000E+00  0.00000000E+00  0.00000000E+00
  0.00000000E+00  0.00000000E+00  0.00000000E+00  0.00000000E+00  0.00000000E+00
  0.00000000E+00  0.00000000E+00  0.00000000E+00  0.00000000E+00  0.00000000E+00
  0.00000000E+00  0.00000000E+00  0.00000000E+00  0.00000000E+00  0.00000000E+00
  0.00000000E+00  0.00000000E+00  0.00000000E+00  0.00000000E+00  0.00000000E+00
  0.00000000E+00  0.00000000E+00  0.00000000E+00  0.00000000E+00  0.00000000E+00
  0.00000000E+00  0.00000000E+00  0.00000000E+00  0.00000000E+00  0.00000000E+00
  0.00000000E+00  0.00000000E+00  0.00000000E+00  0.00000000E+00  0.00000000E+00
  0.00000000E+00  0.00000000E+00  0.00000000E+00  0.00000000E+00  0.00000000E+00
  0.00000000E+00  0.00000000E+00  0.00000000E+00  0.00000000E+00  0.00000000E+00
  0.00000000E+00  0.00000000E+00  0.00000000E+00  0.00000000E+00  0.00000000E+00
  0.00000000E+00  0.00000000E+00  0.00000000E+00  0.00000000E+00  0.00000000E+00
  0.00000000E+00  0.00000000E+00  0.00000000E+00  0.00000000E+00  0.00000000E+00
  0.00000000E+00  0.00000000E+00  0.00000000E+00  0.00000000E+00  0.00000000E+00
  0.00000000E+00  0.00000000E+00  0.00000000E+00  0.00000000E+00  0.00000000E+00
  0.00000000E+00  0.00000000E+00  0.00000000E+00  0.00000000E+00  0.00000000E+00
  0.00000000E+00  0.00000000E+00  0.00000000E+00  0.00000000E+00  0.00000000E+00
  0.00000000E+00  0.00000000E+00  0.00000000E+00  0.00000000E+00  0.00000000E+00
  0.00000000E+00  0.00000000E+00  0.00000000E+00  0.00000000E+00  0.00000000E+00
  0.00000000E+00  0.00000000E+00  0.00000000E+00  0.00000000E+00  0.00000000E+00
  0.00000000E+00  0.00000000E+00  0.00000000E+00  0.00000000E+00  0.00000000E+00
  0.00000000E+00  0.00000000E+00  0.00000000E+00  0.00000000E+00  0.00000000E+00
  0.00000000E+00  0.00000000E+00  0.00000000E+00  0.00000000E+00  0.00000000E+00
  0.00000000E+00  0.00000000E+00  0.00000000E+00  0.00000000E+00  0.00000000E+00
  0.00000000E+00  0.00000000E+00
MO    3                     OCC NO =   1.00000000 ORB. ENERGY = -68.16812217
  1.70811940E+01  1.66871892E+01  1.51343575E+01  1.31537169E+01  1.15289845E+01
  1.05901817E+01  9.96249536E+00  9.76668835E+00  9.57080119E+00  8.56963547E+00
  7.99971419E+00  5.15359783E+00  9.56954837E-01  2.07711045E+00  4.96234864E+00
  8.72768829E+00  8.79073413E+00 -1.37284204E-01 -9.85128204E+00 -9.38571393E+00
 -1.51113235E+00  5.17200797E+00  2.31075263E+00  1.41500362E-01 -8.48587754E-03
  1.93614941E-03 -6.34578687E-04  1.23508747E-04 -1.59554212E-05  2.40489321E-06
  0.00000000E+00  0.00000000E+00  0.00000000E+00  0.00000000E+00  0.00000000E+00
  0.00000000E+00  0.00000000E+00  0.00000000E+00  0.00000000E+00  0.00000000E+00
  0.00000000E+00  0.00000000E+00  0.00000000E+00  0.00000000E+00  0.00000000E+00
  0.00000000E+00  0.00000000E+00  0.00000000E+00  0.00000000E+00  0.00000000E+00
  0.00000000E+00  0.00000000E+00  0.00000000E+00  0.00000000E+00  0.00000000E+00
  0.00000000E+00  0.00000000E+00  0.00000000E+00  0.00000000E+00  0.00000000E+00
  0.00000000E+00  0.00000000E+00  0.00000000E+00  0.00000000E+00  0.00000000E+00
  0.00000000E+00  0.00000000E+00  0.00000000E+00  0.00000000E+00  0.00000000E+00
  0.00000000E+00  0.00000000E+00  0.00000000E+00  0.00000000E+00  0.00000000E+00
  0.00000000E+00  0.00000000E+00  0.00000000E+00  0.00000000E+00  0.00000000E+00
  0.00000000E+00  0.00000000E+00  0.00000000E+00  0.00000000E+00  0.00000000E+00
  0.00000000E+00  0.00000000E+00  0.00000000E+00  0.00000000E+00  0.00000000E+00
  0.00000000E+00  0.00000000E+00  0.00000000E+00  0.00000000E+00  0.00000000E+00
  0.00000000E+00  0.00000000E+00  0.00000000E+00  0.00000000E+00  0.00000000E+00
  0.00000000E+00  0.00000000E+00  0.00000000E+00  0.00000000E+00  0.00000000E+00
  0.00000000E+00  0.00000000E+00  0.00000000E+00  0.00000000E+00  0.00000000E+00
  0.00000000E+00  0.00000000E+00  0.00000000E+00  0.00000000E+00  0.00000000E+00
  0.00000000E+00  0.00000000E+00  0.00000000E+00  0.00000000E+00  0.00000000E+00
  0.00000000E+00  0.00000000E+00  0.00000000E+00  0.00000000E+00  0.00000000E+00
  0.00000000E+00  0.00000000E+00  0.00000000E+00  0.00000000E+00  0.00000000E+00
  0.00000000E+00  0.00000000E+00  0.00000000E+00  0.00000000E+00  0.00000000E+00
  0.00000000E+00  0.00000000E+00  0.00000000E+00  0.00000000E+00  0.00000000E+00
  0.00000000E+00  0.00000000E+00  0.00000000E+00  0.00000000E+00  0.00000000E+00
  0.00000000E+00  0.00000000E+00  0.00000000E+00  0.00000000E+00  0.00000000E+00
  0.00000000E+00  0.00000000E+00  0.00000000E+00  0.00000000E+00  0.00000000E+00
  0.00000000E+00  0.00000000E+00  0.00000000E+00  0.00000000E+00  0.00000000E+00
  0.00000000E+00  0.00000000E+00  0.00000000E+00  0.00000000E+00  0.00000000E+00
  0.00000000E+00  0.00000000E+00  0.00000000E+00  0.00000000E+00  0.00000000E+00
  0.00000000E+00  0.00000000E+00  0.00000000E+00  0.00000000E+00  0.00000000E+00
  0.00000000E+00  0.00000000E+00  0.00000000E+00  0.00000000E+00  0.00000000E+00
  0.00000000E+00  0.00000000E+00  0.00000000E+00  0.00000000E+00  0.00000000E+00
  0.00000000E+00  0.00000000E+00  0.00000000E+00  0.00000000E+00  0.00000000E+00
  0.00000000E+00  0.00000000E+00  0.00000000E+00  0.00000000E+00  0.00000000E+00
  0.00000000E+00  0.00000000E+00  0.00000000E+00  0.00000000E+00  0.00000000E+00
  0.00000000E+00  0.00000000E+00  0.00000000E+00  0.00000000E+00  0.00000000E+00
  0.00000000E+00  0.00000000E+00  0.00000000E+00  0.00000000E+00  0.00000000E+00
  0.00000000E+00  0.00000000E+00  0.00000000E+00  0.00000000E+00  0.00000000E+00
  0.00000000E+00  0.00000000E+00  0.00000000E+00  0.00000000E+00  0.00000000E+00
  0.00000000E+00  0.00000000E+00  0.00000000E+00  0.00000000E+00  0.00000000E+00
  0.00000000E+00  0.00000000E+00  0.00000000E+00  0.00000000E+00  0.00000000E+00
  0.00000000E+00  0.00000000E+00  0.00000000E+00  0.00000000E+00  0.00000000E+00
  0.00000000E+00  0.00000000E+00  0.00000000E+00  0.00000000E+00  0.00000000E+00
  0.00000000E+00  0.00000000E+00  0.00000000E+00  0.00000000E+00  0.00000000E+00
  0.00000000E+00  0.00000000E+00  0.00000000E+00  0.00000000E+00  0.00000000E+00
  0.00000000E+00  0.00000000E+00  0.00000000E+00  0.00000000E+00  0.00000000E+00
  0.00000000E+00  0.00000000E+00  0.00000000E+00  0.00000000E+00  0.00000000E+00
  0.00000000E+00  0.00000000E+00  0.00000000E+00  0.00000000E+00  0.00000000E+00
  0.00000000E+00  0.00000000E+00  0.00000000E+00  0.00000000E+00  0.00000000E+00
  0.00000000E+00  0.00000000E+00  0.00000000E+00  0.00000000E+00  0.00000000E+00
  0.00000000E+00  0.00000000E+00  0.00000000E+00  0.00000000E+00  0.00000000E+00
  0.00000000E+00  0.00000000E+00  0.00000000E+00  0.00000000E+00  0.00000000E+00
  0.00000000E+00  0.00000000E+00  0.00000000E+00  0.00000000E+00  0.00000000E+00
  0.00000000E+00  0.00000000E+00  0.00000000E+00  0.00000000E+00  0.00000000E+00