atomref-proatoms Ge_q0_mult3_nist x2c-QZVPall
GAUSSIAN             33 MOL ORBITALS    185 PRIMITIVES        1 NUCLEI
  Ge   1    (CENTRE  1)   0.00000000  0.00000000  0.00000000  CHARGE = 32.0
CENTRE ASSIGNMENTS    1  1  1  1  1  1  1  1  1  1  1  1  1  1  1  1  1  1  1  1
CENTRE ASSIGNMENTS    1  1  1  1  1  1  1  1  1  1  1  1  1  1  1  1  1  1  1  1
CENTRE ASSIGNMENTS    1  1  1  1  1  1  1  1  1  1  1  1  1  1  1  1  1  1  1  1
CENTRE ASSIGNMENTS    1  1  1  1  1  1  1  1  1  1  1  1  1  1  1  1  1  1  1  1
CENTRE ASSIGNMENTS    1  1  1  1  1  1  1  1  1  1  1  1  1  1  1  1  1  1  1  1
CENTRE ASSIGNMENTS    1  1  1  1  1  1  1  1  1  1  1  1  1  1  1  1  1  1  1  1
CENTRE ASSIGNMENTS    1  1  1  1  1  1  1  1  1  1  1  1  1  1  1  1  1  1  1  1
CENTRE ASSIGNMENTS    1  1  1  1  1  1  1  1  1  1  1  1  1  1  1  1  1  1  1  1
CENTRE ASSIGNMENTS    1  1  1  1  1  1  1  1  1  1  1  1  1  1  1  1  1  1  1  1
CENTRE ASSIGNMENTS    1  1  1  1  1
TYPE ASSIGNMENTS      1  1  1  1  1  1  1  1  1  1  1  1  1  1  1  1  1  1  1  1
TYPE ASSIGNMENTS      1  1  1  1  2  3  4  2  3  4  2  3  4  2  3  4  2  3  4  2
TYPE ASSIGNMENTS      3  4  2  3  4  2  3  4  2  3  4  2  3  4  2  3  4  2  3  4
TYPE ASSIGNMENTS      2  3  4  2  3  4  2  3  4  2  3  4  2  3  4  2  3  4  2  3
TYPE ASSIGNMENTS      4  2  3  4  2  3  4  2  3  4  5  8  9  6 10  7  5  8  9  6
TYPE ASSIGNMENTS     10  7  5  8  9  6 10  7  5  8  9  6 10  7  5  8  9  6 10  7
TYPE ASSIGNMENTS      5  8  9  6 10  7  5  8  9  6 10  7  5  8  9  6 10  7  5  8
TYPE ASSIGNMENTS      9  6 10  7  5  8  9  6 10  7 11 14 15 17 20 18 12 16 19 13
TYPE ASSIGNMENTS     11 14 15 17 20 18 12 16 19 13 21 24 25 30 33 31 26 34 35 28
TYPE ASSIGNMENTS     22 27 32 29 23
EXPONENTS  2.0716161E+07 2.9316202E+06 6.1588421E+05 1.6264142E+05 5.0180083E+04
EXPONENTS  1.7406936E+04 6.5938700E+03 2.6553081E+03 1.1684892E+03 5.3368911E+02
EXPONENTS  2.4772666E+02 2.7111938E+03 8.7228282E+02 3.3433292E+02 1.5091722E+02
EXPONENTS  7.3084553E+01 3.1103750E+01 1.4518147E+01 6.4829972E+00 3.0219309E+00
EXPONENTS  1.3263447E+00 3.4762543E-01 1.6762285E-01 7.1886338E-02 8.8131699E+04
EXPONENTS  8.8131699E+04 8.8131699E+04 1.9952878E+04 1.9952878E+04 1.9952878E+04
EXPONENTS  6.2606809E+03 6.2606809E+03 6.2606809E+03 2.0497177E+03 2.0497177E+03
EXPONENTS  2.0497177E+03 7.6486911E+02 7.6486911E+02 7.6486911E+02 3.1712860E+02
EXPONENTS  3.1712860E+02 3.1712860E+02 1.4050198E+02 1.4050198E+02 1.4050198E+02
EXPONENTS  6.6101538E+01 6.6101538E+01 6.6101538E+01 3.2648519E+01 3.2648519E+01
EXPONENTS  3.2648519E+01 1.6727166E+01 1.6727166E+01 1.6727166E+01 8.8851071E+00
EXPONENTS  8.8851071E+00 8.8851071E+00 2.5000000E+01 2.5000000E+01 2.5000000E+01
EXPONENTS  1.7846959E+02 1.7846959E+02 1.7846959E+02 7.3340872E+01 7.3340872E+01
EXPONENTS  7.3340872E+01 3.3078927E+01 3.3078927E+01 3.3078927E+01 8.2936446E+00
EXPONENTS  8.2936446E+00 8.2936446E+00 4.1478137E+00 4.1478137E+00 4.1478137E+00
EXPONENTS  2.0874159E+00 2.0874159E+00 2.0874159E+00 1.0026194E+00 1.0026194E+00
EXPONENTS  1.0026194E+00 3.7275625E-01 3.7275625E-01 3.7275625E-01 1.4714299E-01
EXPONENTS  1.4714299E-01 1.4714299E-01 5.5576122E-02 5.5576122E-02 5.5576122E-02
EXPONENTS  4.4049684E+02 4.4049684E+02 4.4049684E+02 4.4049684E+02 4.4049684E+02
EXPONENTS  4.4049684E+02 1.3066360E+02 1.3066360E+02 1.3066360E+02 1.3066360E+02
EXPONENTS  1.3066360E+02 1.3066360E+02 5.0284154E+01 5.0284154E+01 5.0284154E+01
EXPONENTS  5.0284154E+01 5.0284154E+01 5.0284154E+01 2.1644769E+01 2.1644769E+01
EXPONENTS  2.1644769E+01 2.1644769E+01 2.1644769E+01 2.1644769E+01 9.9714044E+00
EXPONENTS  9.9714044E+00 9.9714044E+00 9.9714044E+00 9.9714044E+00 9.9714044E+00
EXPONENTS  4.6965973E+00 4.6965973E+00 4.6965973E+00 4.6965973E+00 4.6965973E+00
EXPONENTS  4.6965973E+00 2.1689384E+00 2.1689384E+00 2.1689384E+00 2.1689384E+00
EXPONENTS  2.1689384E+00 2.1689384E+00 9.5537116E-01 9.5537116E-01 9.5537116E-01
EXPONENTS  9.5537116E-01 9.5537116E-01 9.5537116E-01 3.7781679E-01 3.7781679E-01
EXPONENTS  3.7781679E-01 3.7781679E-01 3.7781679E-01 3.7781679E-01 1.4000000E-01
EXPONENTS  1.4000000E-01 1.4000000E-01 1.4000000E-01 1.4000000E-01 1.4000000E-01
EXPONENTS  5.4920000E-01 5.4920000E-01 5.4920000E-01 5.4920000E-01 5.4920000E-01
EXPONENTS  5.4920000E-01 5.4920000E-01 5.4920000E-01 5.4920000E-01 5.4920000E-01
EXPONENTS  2.1900000E-01 2.1900000E-01 2.1900000E-01 2.1900000E-01 2.1900000E-01
EXPONENTS  2.1900000E-01 2.1900000E-01 2.1900000E-01 2.1900000E-01 2.1900000E-01
EXPONENTS  4.6810000E-01 4.6810000E-01 4.6810000E-01 4.6810000E-01 4.6810000E-01
EXPONENTS  4.6810000E-01 4.6810000E-01 4.6810000E-01 4.6810000E-01 4.6810000E-01
EXPONENTS  4.6810000E-01 4.6810000E-01 4.6810000E-01 4.6810000E-01 4.6810000E-01
MO    1                     OCC NO =   1.00000000 ORB. ENERGY = -404.50901130
  1.49637195E+01  1.10730417E+01  9.46841196E+00  9.10534203E+00  9.52725315E+00
  1.09870456E+01  1.30886092E+01  1.52020545E+01  1.60456724E+01  1.53797609E+01
  7.21257329E+00  9.96805812E-01  3.09414119E+00  6.90346607E+00  8.50222937E+00
  2.73632988E+00  7.03888704E-02  1.09579814E-02 -4.63952106E-03  1.54802250E-03
 -3.47533082E-04  5.72691217E-05 -2.34363655E-05  3.53661338E-06  0.00000000E+00
  0.00000000E+00  0.00000000E+00  0.00000000E+00  0.00000000E+00  0.00000000E+00
  0.00000000E+00  0.00000000E+00  0.00000000E+00  0.00000000E+00  0.00000000E+00
  0.00000000E+00  0.00000000E+00  0.00000000E+00  0.00000000E+00  0.00000000E+00
  0.00000000E+00  0.00000000E+00  0.00000000E+00  0.00000000E+00  0.00000000E+00
  0.00000000E+00  0.00000000E+00  0.00000000E+00  0.00000000E+00  0.00000000E+00
  0.00000000E+00  0.00000000E+00  0.00000000E+00  0.00000000E+00  0.00000000E+00
  0.00000000E+00  0.00000000E+00  0.00000000E+00  0.00000000E+00  0.00000000E+00
  0.00000000E+00  0.00000000E+00  0.00000000E+00  0.00000000E+00  0.00000000E+00
  0.00000000E+00  0.00000000E+00  0.00000000E+00  0.00000000E+00  0.00000000E+00
  0.00000000E+00  0.00000000E+00  0.00000000E+00  0.00000000E+00  0.00000000E+00
  0.00000000E+00  0.00000000E+00  0.00000000E+00  0.00000000E+00  0.00000000E+00
  0.00000000E+00  0.00000000E+00  0.00000000E+00  0.00000000E+00  0.00000000E+00
  0.00000000E+00  0.00000000E+00  0.00000000E+00  0.00000000E+00  0.00000000E+00
  0.00000000E+00  0.00000000E+00  0.00000000E+00  0.00000000E+00  0.00000000E+00
  0.00000000E+00  0.00000000E+00  0.00000000E+00  0.00000000E+00  0.00000000E+00
  0.00000000E+00  0.00000000E+00  0.00000000E+00  0.00000000E+00  0.00000000E+00
  0.00000000E+00  0.00000000E+00  0.00000000E+00  0.00000000E+00  0.00000000E+00
  0.00000000E+00  0.00000000E+00  0.00000000E+00  0.00000000E+00  0.00000000E+00
  0.00000000E+00  0.00000000E+00  0.00000000E+00  0.00000000E+00  0.00000000E+00
  0.00000000E+00  0.00000000E+00  0.00000000E+00  0.00000000E+00  0.00000000E+00
  0.00000000E+00  0.00000000E+00  0.00000000E+00  0.00000000E+00  0.00000000E+00
  0.00000000E+00  0.00000000E+00  0.00000000E+00  0.00000000E+00  0.00000000E+00
  0.00000000E+00  0.00000000E+00  0.00000000E+00  0.00000000E+00  0.00000000E+00
  0.00000000E+00  0.00000000E+00  0.00000000E+00  0.00000000E+00  0.00000000E+00
  0.00000000E+00  0.00000000E+00  0.00000000E+00  0.00000000E+00  0.00000000E+00
  0.00000000E+00  0.00000000E+00  0.00000000E+00  0.00000000E+00  0.00000000E+00
  0.00000000E+00  0.00000000E+00  0.00000000E+00  0.00000000E+00  0.00000000E+00
  0.00000000E+00  0.00000000E+00  0.00000000E+00  0.00000000E+00  0.00000000E+00
  0.00000000E+00  0.00000000E+00  0.00000000E+00  0.00000000E+00  0.00000000E+00
  0.00000000E+00  0.00000000E+00  0.00000000E+00  0.00000000E+00  0.00000000E+00
  0.00000000E+00  0.00000000E+00  0.00000000E+00  0.00000000E+00  0.00000000E+00
  0.00000000E+00  0.00000000E+00  0.00000000E+00  0.00000000E+00  0.00000000E+00
MO    2                     OCC NO =   1.00000000 ORB. ENERGY = -51.14362501
 -4.83318323E+00 -3.57651984E+00 -3.05823495E+00 -2.94096574E+00 -3.07724027E+00
 -3.54874366E+00 -4.22753492E+00 -4.91016387E+00 -5.18264691E+00 -4.96756189E+00
 -2.32961386E+00 -6.58075119E-01 -2.04270210E+00 -4.55755696E+00 -5.61303469E+00
 -1.34893307E+00  3.91613893E+00  3.14371765E+00  4.75242966E-01 -1.18604042E-02
  3.37515695E-03 -4.75954042E-04  1.91958091E-04 -2.90085946E-05  0.00000000E+00
  0.00000000E+00  0.00000000E+00  0.00000000E+00  0.00000000E+00  0.00000000E+00
  0.00000000E+00  0.00000000E+00  0.00000000E+00  0.00000000E+00  0.00000000E+00
  0.00000000E+00  0.00000000E+00  0.00000000E+00  0.00000000E+00  0.00000000E+00
  0.00000000E+00  0.00000000E+00  0.00000000E+00  0.00000000E+00  0.00000000E+00
  0.00000000E+00  0.00000000E+00  0.00000000E+00  0.00000000E+00  0.00000000E+00
  0.00000000E+00  0.00000000E+00  0.00000000E+00  0.00000000E+00  0.00000000E+00
  0.00000000E+00  0.00000000E+00  0.00000000E+00  0.00000000E+00  0.00000000E+00
  0.00000000E+00  0.00000000E+00  0.00000000E+00  0.00000000E+00  0.00000000E+00
  0.00000000E+00  0.00000000E+00  0.00000000E+00  0.00000000E+00  0.00000000E+00
  0.00000000E+00  0.00000000E+00  0.00000000E+00  0.00000000E+00  0.00000000E+00
  0.00000000E+00  0.00000000E+00  0.00000000E+00  0.00000000E+00  0.00000000E+00
  0.00000000E+00  0.00000000E+00  0.00000000E+00  0.00000000E+00  0.00000000E+00
  0.00000000E+00  0.00000000E+00  0.00000000E+00  0.00000000E+00  0.00000000E+00
  0.00000000E+00  0.00000000E+00  0.00000000E+00  0.00000000E+00  0.00000000E+00
  0.00000000E+00  0.00000000E+00  0.00000000E+00  0.00000000E+00  0.00000000E+00
  0.00000000E+00  0.00000000E+00  0.00000000E+00  0.00000000E+00  0.00000000E+00
  0.00000000E+00  0.00000000E+00  0.00000000E+00  0.00000000E+00  0.00000000E+00
  0.00000000E+00  0.00000000E+00  0.00000000E+00  0.00000000E+00  0.00000000E+00
  0.00000000E+00  0.00000000E+00  0.00000000E+00  0.00000000E+00  0.00000000E+00
  0.00000000E+00  0.00000000E+00  0.00000000E+00  0.00000000E+00  0.00000000E+00
  0.00000000E+00  0.00000000E+00  0.00000000E+00  0.00000000E+00  0.00000000E+00
  0.00000000E+00  0.00000000E+00  0.00000000E+00  0.00000000E+00  0.00000000E+00
  0.00000000E+00  0.00000000E+00  0.00000000E+00  0.00000000E+00  0.00000000E+00
  0.00000000E+00  0.00000000E+00  0.00000000E+00  0.00000000E+00  0.00000000E+00
  0.00000000E+00  0.00000000E+00  0.00000000E+00  0.00000000E+00  0.00000000E+00
  0.00000000E+00  0.00000000E+00  0.00000000E+00  0.00000000E+00  0.00000000E+00
  0.00000000E+00  0.00000000E+00  0.00000000E+00  0.00000000E+00  0.00000000E+00
  0.00000000E+00  0.00000000E+00  0.00000000E+00  0.00000000E+00  0.00000000E+00
  0.00000000E+00  0.00000000E+00  0.00000000E+00  0.00000000E+00  0.00000000E+00
  0.00000000E+00  0.00000000E+00  0.00000000E+00  0.00000000E+00  0.00000000E+00
  0.00000000E+00  0.00000000E+00  0.00000000E+00  0.00000000E+00  0.00000000E+00
  0.00000000E+00  0.00000000E+00  0.00000000E+00  0.00000000E+00  0.00000000E+00
MO    3                     OCC NO =   1.00000000 ORB. ENERGY =  -6.50055548
  1.88124365E+00  1.39210638E+00  1.19037181E+00  1.14472654E+00  1.19776934E+00
  1.38129492E+00  1.64550418E+00  1.91120720E+00  2.01726711E+00  1.93354851E+00
  9.06767044E-01  2.80714323E-01  8.71353013E-01  1.94411166E+00  2.39434555E+00
  6.09176146E-01 -2.32529365E+00 -2.73142618E+00 -3.15176293E-02  1.17586884E+00
  4.27108302E-01  1.13672582E-02 -2.63823853E-03  3.34824176E-04  0.00000000E+00
  0.00000000E+00  0.00000000E+00  0.00000000E+00  0.00000000E+00  0.00000000E+00
  0.00000000E+00  0.00000000E+00  0.00000000E+00  0.00000000E+00  0.00000000E+00
  0.00000000E+00  0.00000000E+00  0.00000000E+00  0.00000000E+00  0.00000000E+00
  0.00000000E+00  0.00000000E+00  0.00000000E+00  0.00000000E+00  0.00000000E+00
  0.00000000E+00  0.00000000E+00  0.00000000E+00  0.00000000E+00  0.00000000E+00
  0.00000000E+00  0.00000000E+00  0.00000000E+00  0.00000000E+00  0.00000000E+00
  0.00000000E+00  0.00000000E+00  0.00000000E+00  0.00000000E+00  0.00000000E+00
  0.00000000E+00  0.00000000E+00  0.00000000E+00  0.00000000E+00  0.00000000E+00
  0.00000000E+00  0.00000000E+00  0.00000000E+00  0.00000000E+00  0.00000000E+00
  0.00000000E+00  0.00000000E+00  0.00000000E+00  0.00000000E+00  0.00000000E+00
  0.00000000E+00  0.00000000E+00  0.00000000E+00  0.00000000E+00  0.00000000E+00
  0.00000000E+00  0.00000000E+00  0.00000000E+00  0.00000000E+00  0.00000000E+00
  0.00000000E+00  0.00000000E+00  0.00000000E+00  0.00000000E+00  0.00000000E+00
  0.00000000E+00  0.00000000E+00  0.00000000E+00  0.00000000E+00  0.00000000E+00
  0.00000000E+00  0.00000000E+00  0.00000000E+00  0.00000000E+00  0.00000000E+00
  0.00000000E+00  0.00000000E+00  0.00000000E+00  0.00000000E+00  0.00000000E+00
  0.00000000E+00  0.00000000E+00  0.00000000E+00  0.00000000E+00  0.00000000E+00
  0.00000000E+00  0.00000000E+00  0.00000000E+00  0.00000000E+00  0.00000000E+00
  0.00000000E+00  0.00000000E+00  0.00000000E+00  0.00000000E+00  0.00000000E+00
  0.00000000E+00  0.00000000E+00  0.00000000E+00  0.00000000E+00  0.00000000E+00
  0.00000000E+00  0.00000000E+00  0.00000000E+00  0.00000000E+00  0.00000000E+00
  0.00000000E+00  0.00000000E+00  0.00000000E+00  0.00000000E+00  0.00000000E+00
  0.00000000E+00  0.00000000E+00  0.00000000E+00  0.00000000E+00  0.00000000E+00
  0.00000000E+00  0.00000000E+00  0.00000000E+00  0.00000000E+00  0.00000000E+00
  0.00000000E+00  0.00000000E+00  0.00000000E+00  0.00000000E+00  0.00000000E+00
  0.00000000E+00  0.00000000E+00  0.00000000E+00  0.00000000E+00  0.00000000E+00
  0.00000000E+00  0.00000000E+00  0.00000000E+00  0.00000000E+00  0.00000000E+00
  0.00000000E+00  0.00000000E+00  0.00000000E+00  0.00000000E+00  0.00000000E+00
  0.00000000E+00  0.00000000E+00  0.00000000E+00  0.00000000E+00  0.00000000E+00
  0.00000000E+00  0.00000000E+00  0.00000000E+00  0.00000000E+00  0.00000000E+00
  0.00000000E+00  0.00000000E+00  0.00000000E+00  0.00000000E+00  0.00000000E+00
  0.00000000E+00  0.00000000E+00  0.00000000E+00  0.00000000E+00  0.00000000E+00
MO    4                     OCC NO =   1.00000000 ORB. ENERGY =  -0.50703397
 -5.15413571E-01 -3.81402230E-01 -3.26132018E-01 -3.13626359E-01 -3.28158756E-01
 -3.78440161E-01 -4.50826871E-01 -5.23622833E-01 -5.52680589E-01 -5.29743792E-01
 -2.48431425E-01 -7.77974614E-02 -2.41487686E-01 -5.38793142E-01 -6.63571433E-01
 -1.71878662E-01  6.76782085E-01  8.33900276E-01  7.42928588E-03 -5.00697837E-01
 -2.91441655E-01  1.04318031E-01  1.22525791E-01  2.14670109E-02  0.00000000E+00
  0.00000000E+00  0.00000000E+00  0.00000000E+00  0.00000000E+00  0.00000000E+00
  0.00000000E+00  0.00000000E+00  0.00000000E+00  0.00000000E+00  0.00000000E+00
  0.00000000E+00  0.00000000E+00  0.00000000E+00  0.00000000E+00  0.00000000E+00
  0.00000000E+00  0.00000000E+00  0.00000000E+00  0.00000000E+00  0.00000000E+00
  0.00000000E+00  0.00000000E+00  0.00000000E+00  0.00000000E+00  0.00000000E+00
  0.00000000E+00  0.00000000E+00  0.00000000E+00  0.00000000E+00  0.00000000E+00
  0.00000000E+00  0.00000000E+00  0.00000000E+00  0.00000000E+00  0.00000000E+00
  0.00000000E+00  0.00000000E+00  0.00000000E+00  0.00000000E+00  0.00000000E+00
  0.00000000E+00  0.00000000E+00  0.00000000E+00  0.00000000E+00  0.00000000E+00
  0.00000000E+00  0.00000000E+00  0.00000000E+00  0.00000000E+00  0.00000000E+00
  0.00000000E+00  0.00000000E+00  0.00000000E+00  0.00000000E+00  0.00000000E+00
  0.00000000E+00  0.00000000E+00  0.00000000E+00  0.00000000E+00  0.00000000E+00
  0.00000000E+00  0.00000000E+00  0.00000000E+00  0.00000000E+00  0.00000000E+00
  0.00000000E+00  0.00000000E+00  0.00000000E+00  0.00000000E+00  0.00000000E+00
  0.00000000E+00  0.00000000E+00  0.00000000E+00  0.00000000E+00  0.00000000E+00
  0.00000000E+00  0.00000000E+00  0.00000000E+00  0.00000000E+00  0.00000000E+00
  0.00000000E+00  0.00000000E+00  0.00000000E+00  0.00000000E+00  0.00000000E+00
  0.00000000E+00  0.00000000E+00  0.00000000E+00  0.00000000E+00  0.00000000E+00
  0.00000000E+00  0.00000000E+00  0.00000000E+00  0.00000000E+00  0.00000000E+00
  0.00000000E+00  0.00000000E+00  0.00000000E+00  0.00000000E+00  0.00000000E+00
  0.00000000E+00  0.00000000E+00  0.00000000E+00  0.00000000E+00  0.00000000E+00
  0.00000000E+00  0.00000000E+00  0.00000000E+00  0.00000000E+00  0.00000000E+00
  0.00000000E+00  0.00000000E+00  0.00000000E+00  0.00000000E+00  0.00000000E+00
  0.00000000E+00  0.00000000E+00  0.00000000E+00  0.00000000E+00  0.00000000E+00
  0.00000000E+00  0.00000000E+00  0.00000000E+00  0.00000000E+00  0.00000000E+00
  0.00000000E+00  0.00000000E+00  0.00000000E+00  0.00000000E+00  0.00000000E+00
  0.00000000E+00  0.00000000E+00  0.00000000E+00  0.00000000E+00  0.00000000E+00
  0.00000000E+00  0.00000000E+00  0.00000000E+00  0.00000000E+00  0.00000000E+00
  0.00000000E+00  0.00000000E+00  0.00000000E+00  0.00000000E+00  0.00000000E+00
  0.00000000E+00  0.00000000E+00  0.00000000E+00  0.00000000E+00  0.00000000E+00
  0.00000000E+00  0.00000000E+00  0.00000000E+00  0.00000000E+00  0.00000000E+00
  0.00000000E+00  0.00000000E+00  0.00000000E+00  0.00000000E+00  0.00000000E+00
MO    5                     OCC NO =   1.00000000 ORB. ENERGY = -44.65252887
  0.00000000E+00  0.00000000E+00  0.00000000E+00  0.00000000E+00  0.00000000E+00
  0.00000000E+00  0.00000000E+00  0.00000000E+00  0.00000000E+00  0.00000000E+00
  0.00000000E+00  0.00000000E+00  0.00000000E+00  0.00000000E+00  0.00000000E+00
  0.00000000E+00  0.00000000E+00  0.00000000E+00  0.00000000E+00  0.00000000E+00
  0.00000000E+00  0.00000000E+00  0.00000000E+00  0.00000000E+00  9.35488465E+01
  0.00000000E+00  0.00000000E+00  4.96898198E+01  0.00000000E+00  0.00000000E+00
  5.24715353E+01  0.00000000E+00  0.00000000E+00  6.09188992E+01  0.00000000E+00
  0.00000000E+00  7.06364788E+01  0.00000000E+00  0.00000000E+00  8.11252975E+01
  0.00000000E+00  0.00000000E+00  8.29721530E+01  0.00000000E+00  0.00000000E+00
  6.73187001E+01  0.00000000E+00  0.00000000E+00  3.97646756E+01  0.00000000E+00
  0.00000000E+00  1.38677334E+01  0.00000000E+00  0.00000000E+00  2.16770516E+00
  0.00000000E+00  0.00000000E+00 -1.91216317E-01  0.00000000E+00  0.00000000E+00
 -5.99484581E-02  0.00000000E+00  0.00000000E+00 -1.18368968E-01  0.00000000E+00
  0.00000000E+00 -1.15205446E-01  0.00000000E+00  0.00000000E+00  1.65177139E-01
  0.00000000E+00  0.00000000E+00  1.52635113E-01  0.00000000E+00  0.00000000E+00
 -2.15838689E-02  0.00000000E+00  0.00000000E+00  4.74296417E-03  0.00000000E+00
  0.00000000E+00 -5.55339261E-04  0.00000000E+00  0.00000000E+00  8.15210032E-05
  0.00000000E+00  0.00000000E+00 -7.42406588E-06  0.00000000E+00  0.00000000E+00
  0.00000000E+00  0.00000000E+00  0.00000000E+00  0.00000000E+00  0.00000000E+00
  0.00000000E+00  0.00000000E+00  0.00000000E+00  0.00000000E+00  0.00000000E+00
  0.00000000E+00  0.00000000E+00  0.00000000E+00  0.00000000E+00  0.00000000E+00
  0.00000000E+00  0.00000000E+00  0.00000000E+00  0.00000000E+00  0.00000000E+00
  0.00000000E+00  0.00000000E+00  0.00000000E+00  0.00000000E+00  0.00000000E+00
  0.00000000E+00  0.00000000E+00  0.00000000E+00  0.00000000E+00  0.00000000E+00
  0.00000000E+00  0.00000000E+00  0.00000000E+00  0.00000000E+00  0.00000000E+00
  0.00000000E+00  0.00000000E+00  0.00000000E+00  0.00000000E+00  0.00000000E+00
  0.00000000E+00  0.00000000E+00  0.00000000E+00  0.00000000E+00  0.00000000E+00
  0.00000000E+00  0.00000000E+00  0.00000000E+00  0.00000000E+00  0.00000000E+00
  0.00000000E+00  0.00000000E+00  0.00000000E+00  0.00000000E+00  0.00000000E+00
  0.00000000E+00  0.00000000E+00  0.00000000E+00  0.00000000E+00  0.00000000E+00
  0.00000000E+00  0.00000000E+00  0.00000000E+00  0.00000000E+00  0.00000000E+00
  0.00000000E+00  0.00000000E+00  0.00000000E+00  0.00000000E+00  0.00000000E+00
  0.00000000E+00  0.00000000E+00  0.00000000E+00  0.00000000E+00  0.00000000E+00
  0.00000000E+00  0.00000000E+00  0.00000000E+00  0.00000000E+00  0.00000000E+00
  0.00000000E+00  0.00000000E+00  0.00000000E+00  0.00000000E+00  0.00000000E+00
  0.00000000E+00  0.00000000E+00  0.00000000E+00  0.00000000E+00  0.00000000E+00
  0.00000000E+00  0.00000000E+00  0.00000000E+00  0.00000000E+00  0.00000000E+00
MO    6                     OCC NO =   1.00000000 ORB. ENERGY = -44.65252887
  0.00000000E+00  0.00000000E+00  0.00000000E+00  0.00000000E+00  0.00000000E+00
  0.00000000E+00  0.00000000E+00  0.00000000E+00  0.00000000E+00  0.00000000E+00
  0.00000000E+00  0.00000000E+00  0.00000000E+00  0.00000000E+00  0.00000000E+00
  0.00000000E+00  0.00000000E+00  0.00000000E+00  0.00000000E+00  0.00000000E+00
  0.00000000E+00  0.00000000E+00  0.00000000E+00  0.00000000E+00  0.00000000E+00
  9.35488465E+01  0.00000000E+00  0.00000000E+00  4.96898198E+01  0.00000000E+00
  0.00000000E+00  5.24715353E+01  0.00000000E+00  0.00000000E+00  6.09188992E+01
  0.00000000E+00  0.00000000E+00  7.06364788E+01  0.00000000E+00  0.00000000E+00
  8.11252975E+01  0.00000000E+00  0.00000000E+00  8.29721530E+01  0.00000000E+00
  0.00000000E+00  6.73187001E+01  0.00000000E+00  0.00000000E+00  3.97646756E+01
  0.00000000E+00  0.00000000E+00  1.38677334E+01  0.00000000E+00  0.00000000E+00
  2.16770516E+00  0.00000000E+00  0.00000000E+00 -1.91216317E-01  0.00000000E+00
  0.00000000E+00 -5.99484581E-02  0.00000000E+00  0.00000000E+00 -1.18368968E-01
  0.00000000E+00  0.00000000E+00 -1.15205446E-01  0.00000000E+00  0.00000000E+00
  1.65177139E-01  0.00000000E+00  0.00000000E+00  1.52635113E-01  0.00000000E+00
  0.00000000E+00 -2.15838689E-02  0.00000000E+00  0.00000000E+00  4.74296417E-03
  0.00000000E+00  0.00000000E+00 -5.55339261E-04  0.00000000E+00  0.00000000E+00
  8.15210032E-05  0.00000000E+00  0.00000000E+00 -7.42406588E-06  0.00000000E+00
  0.00000000E+00  0.00000000E+00  0.00000000E+00  0.00000000E+00  0.00000000E+00
  0.00000000E+00  0.00000000E+00  0.00000000E+00  0.00000000E+00  0.00000000E+00
  0.00000000E+00  0.00000000E+00  0.00000000E+00  0.00000000E+00  0.00000000E+00
  0.00000000E+00  0.00000000E+00  0.00000000E+00  0.00000000E+00  0.00000000E+00
  0.00000000E+00  0.00000000E+00  0.00000000E+00  0.00000000E+00  0.00000000E+00
  0.00000000E+00  0.00000000E+00  0.00000000E+00  0.00000000E+00  0.00000000E+00
  0.00000000E+00  0.00000000E+00  0.00000000E+00  0.00000000E+00  0.00000000E+00
  0.00000000E+00  0.00000000E+00  0.00000000E+00  0.00000000E+00  0.00000000E+00
  0.00000000E+00  0.00000000E+00  0.00000000E+00  0.00000000E+00  0.00000000E+00
  0.00000000E+00  0.00000000E+00  0.00000000E+00  0.00000000E+00  0.00000000E+00
  0.00000000E+00  0.00000000E+00  0.00000000E+00  0.00000000E+00  0.00000000E+00
  0.00000000E+00  0.00000000E+00  0.00000000E+00  0.00000000E+00  0.00000000E+00
  0.00000000E+00  0.00000000E+00  0.00000000E+00  0.00000000E+00  0.00000000E+00
  0.00000000E+00  0.00000000E+00  0.00000000E+00  0.00000000E+00  0.00000000E+00
  0.00000000E+00  0.00000000E+00  0.00000000E+00  0.00000000E+00  0.00000000E+00
  0.00000000E+00  0.00000000E+00  0.00000000E+00  0.00000000E+00  0.00000000E+00
  0.00000000E+00  0.00000000E+00  0.00000000E+00  0.00000000E+00  0.00000000E+00
  0.00000000E+00  0.00000000E+00  0.00000000E+00  0.00000000E+00  0.00000000E+00
  0.00000000E+00  0.00000000E+00  0.00000000E+00  0.00000000E+00  0.00000000E+00
MO    7                     OCC NO =   1.00000000 ORB. ENERGY = -44.65252887
  0.00000000E+00  0.00000000E+00  0.00000000E+00  0.00000000E+00  0.00000000E+00
  0.00000000E+00  0.00000000E+00  0.00000000E+00  0.00000000E+00  0.00000000E+00
  0.00000000E+00  0.00000000E+00  0.00000000E+00  0.00000000E+00  0.00000000E+00
  0.00000000E+00  0.00000000E+00  0.00000000E+00  0.00000000E+00  0.00000000E+00
  0.00000000E+00  0.00000000E+00  0.00000000E+00  0.00000000E+00  0.00000000E+00
  0.00000000E+00  9.35488465E+01  0.00000000E+00  0.00000000E+00  4.96898198E+01
  0.00000000E+00  0.00000000E+00  5.24715353E+01  0.00000000E+00  0.00000000E+00
  6.09188992E+01  0.00000000E+00  0.00000000E+00  7.06364788E+01  0.00000000E+00
  0.00000000E+00  8.11252975E+01  0.00000000E+00  0.00000000E+00  8.29721530E+01
  0.00000000E+00  0.00000000E+00  6.73187001E+01  0.00000000E+00  0.00000000E+00
  3.97646756E+01  0.00000000E+00  0.00000000E+00  1.38677334E+01  0.00000000E+00
  0.00000000E+00  2.16770516E+00  0.00000000E+00  0.00000000E+00 -1.91216317E-01
  0.00000000E+00  0.00000000E+00 -5.99484581E-02  0.00000000E+00  0.00000000E+00
 -1.18368968E-01  0.00000000E+00  0.00000000E+00 -1.15205446E-01  0.00000000E+00
  0.00000000E+00  1.65177139E-01  0.00000000E+00  0.00000000E+00  1.52635113E-01
  0.00000000E+00  0.00000000E+00 -2.15838689E-02  0.00000000E+00  0.00000000E+00
  4.74296417E-03  0.00000000E+00  0.00000000E+00 -5.55339261E-04  0.00000000E+00
  0.00000000E+00  8.15210032E-05  0.00000000E+00  0.00000000E+00 -7.42406588E-06
  0.00000000E+00  0.00000000E+00  0.00000000E+00  0.00000000E+00  0.00000000E+00
  0.00000000E+00  0.00000000E+00  0.00000000E+00  0.00000000E+00  0.00000000E+00
  0.00000000E+00  0.00000000E+00  0.00000000E+00  0.00000000E+00  0.00000000E+00
  0.00000000E+00  0.00000000E+00  0.00000000E+00  0.00000000E+00  0.00000000E+00
  0.00000000E+00  0.00000000E+00  0.00000000E+00  0.00000000E+00  0.00000000E+00
  0.00000000E+00  0.00000000E+00  0.00000000E+00  0.00000000E+00  0.00000000E+00
  0.00000000E+00  0.00000000E+00  0.00000000E+00  0.00000000E+00  0.00000000E+00
  0.00000000E+00  0.00000000E+00  0.00000000E+00  0.00000000E+00  0.00000000E+00
  0.00000000E+00  0.00000000E+00  0.00000000E+00  0.00000000E+00  0.00000000E+00
  0.00000000E+00  0.00000000E+00  0.00000000E+00  0.00000000E+00  0.00000000E+00
  0.00000000E+00  0.00000000E+00  0.00000000E+00  0.00000000E+00  0.00000000E+00
  0.00000000E+00  0.00000000E+00  0.00000000E+00  0.00000000E+00  0.00000000E+00
  0.00000000E+00  0.00000000E+00  0.00000000E+00  0.00000000E+00  0.00000000E+00
  0.00000000E+00  0.00000000E+00  0.00000000E+00  0.00000000E+00  0.00000000E+00
  0.00000000E+00  0.00000000E+00  0.00000000E+00  0.00000000E+00  0.00000000E+00
  0.00000000E+00  0.00000000E+00  0.00000000E+00  0.00000000E+00  0.00000000E+00
  0.00000000E+00  0.00000000E+00  0.00000000E+00  0.00000000E+00  0.00000000E+00
  0.00000000E+00  0.00000000E+00  0.00000000E+00  0.00000000E+00  0.00000000E+00
  0.00000000E+00  0.00000000E+00  0.00000000E+00  0.00000000E+00  0.00000000E+00
MO    8                     OCC NO =   1.00000000 ORB. ENERGY =  -4.49597818
  0.00000000E+00  0.00000000E+00  0.00000000E+00  0.00000000E+00  0.00000000E+00
  0.00000000E+00  0.00000000E+00  0.00000000E+00  0.00000000E+00  0.00000000E+00
  0.00000000E+00  0.00000000E+00  0.00000000E+00  0.00000000E+00  0.00000000E+00
  0.00000000E+00  0.00000000E+00  0.00000000E+00  0.00000000E+00  0.00000000E+00
  0.00000000E+00  0.00000000E+00  0.00000000E+00  0.00000000E+00 -3.70165370E+01
  0.00000000E+00  0.00000000E+00 -1.96618678E+01  0.00000000E+00  0.00000000E+00
 -2.07625706E+01  0.00000000E+00  0.00000000E+00 -2.41051255E+01  0.00000000E+00
  0.00000000E+00 -2.79502947E+01  0.00000000E+00  0.00000000E+00 -3.21006372E+01
  0.00000000E+00  0.00000000E+00 -3.28314232E+01  0.00000000E+00  0.00000000E+00
 -2.66374760E+01  0.00000000E+00  0.00000000E+00 -1.57345669E+01  0.00000000E+00
  0.00000000E+00 -5.48735217E+00  0.00000000E+00  0.00000000E+00 -8.57743749E-01
  0.00000000E+00  0.00000000E+00  3.21782807E-01  0.00000000E+00  0.00000000E+00
 -1.36851537E+00  0.00000000E+00  0.00000000E+00 -2.70215044E+00  0.00000000E+00
  0.00000000E+00 -2.62993292E+00  0.00000000E+00  0.00000000E+00  3.77069670E+00
  0.00000000E+00  0.00000000E+00  3.48438483E+00  0.00000000E+00  0.00000000E+00
  1.44131483E+00  0.00000000E+00  0.00000000E+00  2.62989372E-01  0.00000000E+00
  0.00000000E+00  5.41870637E-03  0.00000000E+00  0.00000000E+00 -1.17892265E-04
  0.00000000E+00  0.00000000E+00  7.65527120E-06  0.00000000E+00  0.00000000E+00
  0.00000000E+00  0.00000000E+00  0.00000000E+00  0.00000000E+00  0.00000000E+00
  0.00000000E+00  0.00000000E+00  0.00000000E+00  0.00000000E+00  0.00000000E+00
  0.00000000E+00  0.00000000E+00  0.00000000E+00  0.00000000E+00  0.00000000E+00
  0.00000000E+00  0.00000000E+00  0.00000000E+00  0.00000000E+00  0.00000000E+00
  0.00000000E+00  0.00000000E+00  0.00000000E+00  0.00000000E+00  0.00000000E+00
  0.00000000E+00  0.00000000E+00  0.00000000E+00  0.00000000E+00  0.00000000E+00
  0.00000000E+00  0.00000000E+00  0.00000000E+00  0.00000000E+00  0.00000000E+00
  0.00000000E+00  0.00000000E+00  0.00000000E+00  0.00000000E+00  0.00000000E+00
  0.00000000E+00  0.00000000E+00  0.00000000E+00  0.00000000E+00  0.00000000E+00
  0.00000000E+00  0.00000000E+00  0.00000000E+00  0.00000000E+00  0.00000000E+00
  0.00000000E+00  0.00000000E+00  0.00000000E+00  0.00000000E+00  0.00000000E+00
  0.00000000E+00  0.00000000E+00  0.00000000E+00  0.00000000E+00  0.00000000E+00
  0.00000000E+00  0.00000000E+00  0.00000000E+00  0.00000000E+00  0.00000000E+00
  0.00000000E+00  0.00000000E+00  0.00000000E+00  0.00000000E+00  0.00000000E+00
  0.00000000E+00  0.00000000E+00  0.00000000E+00  0.00000000E+00  0.00000000E+00
  0.00000000E+00  0.00000000E+00  0.00000000E+00  0.00000000E+00  0.00000000E+00
  0.00000000E+00  0.00000000E+00  0.00000000E+00  0.00000000E+00  0.00000000E+00
  0.00000000E+00  0.00000000E+00  0.00000000E+00  0.00000000E+00  0.00000000E+00
  0.00000000E+00  0.00000000E+00  0.00000000E+00  0.00000000E+00  0.00000000E+00
MO    9                     OCC NO =   1.00000000 ORB. ENERGY =  -4.49597818
  0.00000000E+00  0.00000000E+00  0.00000000E+00  0.00000000E+00  0.00000000E+00
  0.00000000E+00  0.00000000E+00  0.00000000E+00  0.00000000E+00  0.00000000E+00
  0.00000000E+00  0.00000000E+00  0.00000000E+00  0.00000000E+00  0.00000000E+00
  0.00000000E+00  0.00000000E+00  0.00000000E+00  0.00000000E+00  0.00000000E+00
  0.00000000E+00  0.00000000E+00  0.00000000E+00  0.00000000E+00  0.00000000E+00
 -3.70165370E+01  0.00000000E+00  0.00000000E+00 -1.96618678E+01  0.00000000E+00
  0.00000000E+00 -2.07625706E+01  0.00000000E+00  0.00000000E+00 -2.41051255E+01