atomref-proatoms H_q0_mult2_nist x2c-QZVPall
GAUSSIAN              1 MOL ORBITALS     38 PRIMITIVES        1 NUCLEI
  H    1    (CENTRE  1)   0.00000000  0.00000000  0.00000000  CHARGE = 1.0
CENTRE ASSIGNMENTS    1  1  1  1  1  1  1  1  1  1  1  1  1  1  1  1  1  1  1  1
CENTRE ASSIGNMENTS    1  1  1  1  1  1  1  1  1  1  1  1  1  1  1  1  1  1
TYPE ASSIGNMENTS      1  1  1  1  1  1  1  2  3  4  2  3  4  2  3  4  5  8  9  6
TYPE ASSIGNMENTS     10  7  5  8  9  6 10  7 11 14 15 17 20 18 12 16 19 13
EXPONENTS  1.9069169E+02 2.8605532E+01 6.5095943E+00 1.8412455E+00 5.9853725E-01
EXPONENTS  2.1397624E-01 8.0316286E-02 2.2920000E+00 2.2920000E+00 2.2920000E+00
EXPONENTS  8.3800000E-01 8.3800000E-01 8.3800000E-01 2.9200000E-01 2.9200000E-01
EXPONENTS  2.9200000E-01 2.0620000E+00 2.0620000E+00 2.0620000E+00 2.0620000E+00
EXPONENTS  2.0620000E+00 2.0620000E+00 6.6200000E-01 6.6200000E-01 6.6200000E-01
EXPONENTS  6.6200000E-01 6.6200000E-01 6.6200000E-01 1.3970000E+00 1.3970000E+00
EXPONENTS  1.3970000E+00 1.3970000E+00 1.3970000E+00 1.3970000E+00 1.3970000E+00
EXPONENTS  1.3970000E+00 1.3970000E+00 1.3970000E+00
MO  1                     OCC NO =   1.00000000 ORB. ENERGY =  -0.33536674
  2.66406400E-02  4.95822528E-02  8.35554408E-02  1.24737982E-01  1.47221416E-01
  9.69479513E-02  2.91260847E-02  0.00000000E+00  0.00000000E+00  0.00000000E+00
  0.00000000E+00  0.00000000E+00  0.00000000E+00  0.00000000E+00  0.00000000E+00
  0.00000000E+00  0.00000000E+00  0.00000000E+00  0.00000000E+00  0.00000000E+00
  0.00000000E+00  0.00000000E+00  0.00000000E+00  0.00000000E+00  0.00000000E+00
  0.00000000E+00  0.00000000E+00  0.00000000E+00  0.00000000E+00  0.00000000E+00
  0.00000000E+00  0.00000000E+00  0.00000000E+00  0.00000000E+00  0.00000000E+00
  0.00000000E+00  0.00000000E+00  0.00000000E+00
END DATA
SCF      ENERGY =      -0.501297367977   VIRIAL(-V/T)  =   2.00000000

$MOSPIN
 1
$END
