atomref-proatoms He_q0_mult1_nist x2c-QZVPall
GAUSSIAN              2 MOL ORBITALS     39 PRIMITIVES        1 NUCLEI
  He   1    (CENTRE  1)   0.00000000  0.00000000  0.00000000  CHARGE = 2.0
CENTRE ASSIGNMENTS    1  1  1  1  1  1  1  1  1  1  1  1  1  1  1  1  1  1  1  1
CENTRE ASSIGNMENTS    1  1  1  1  1  1  1  1  1  1  1  1  1  1  1  1  1  1  1
TYPE ASSIGNMENTS      1  1  1  1  1  1  1  1  2  3  4  2  3  4  2  3  4  5  8  9
TYPE ASSIGNMENTS      6 10  7  5  8  9  6 10  7 11 14 15 17 20 18 12 16 19 13
EXPONENTS  1.1446471E+03 1.7164597E+02 3.9066056E+01 1.1051402E+01 3.5725574E+00
EXPONENTS  1.2429416E+00 4.4807669E-01 1.6411579E-01 5.9940000E+00 5.9940000E+00
EXPONENTS  5.9940000E+00 1.7450000E+00 1.7450000E+00 1.7450000E+00 5.6000000E-01
EXPONENTS  5.6000000E-01 5.6000000E-01 4.2990000E+00 4.2990000E+00 4.2990000E+00
EXPONENTS  4.2990000E+00 4.2990000E+00 4.2990000E+00 1.2230000E+00 1.2230000E+00
EXPONENTS  1.2230000E+00 1.2230000E+00 1.2230000E+00 1.2230000E+00 2.6800000E+00
EXPONENTS  2.6800000E+00 2.6800000E+00 2.6800000E+00 2.6800000E+00 2.6800000E+00
EXPONENTS  2.6800000E+00 2.6800000E+00 2.6800000E+00 2.6800000E+00
MO    1                     OCC NO =   1.00000000 ORB. ENERGY =  -0.66928764
  5.12733588E-02  9.55239393E-02  1.61687347E-01  2.44219774E-01  3.05292997E-01
  2.76246751E-01  1.55702499E-01  3.89941016E-02  0.00000000E+00  0.00000000E+00
  0.00000000E+00  0.00000000E+00  0.00000000E+00  0.00000000E+00  0.00000000E+00
  0.00000000E+00  0.00000000E+00  0.00000000E+00  0.00000000E+00  0.00000000E+00
  0.00000000E+00  0.00000000E+00  0.00000000E+00  0.00000000E+00  0.00000000E+00
  0.00000000E+00  0.00000000E+00  0.00000000E+00  0.00000000E+00  0.00000000E+00
  0.00000000E+00  0.00000000E+00  0.00000000E+00  0.00000000E+00  0.00000000E+00
  0.00000000E+00  0.00000000E+00  0.00000000E+00  0.00000000E+00
MO    3                     OCC NO =   1.00000000 ORB. ENERGY =  -0.66928764
  5.12733588E-02  9.55239393E-02  1.61687347E-01  2.44219774E-01  3.05292997E-01
  2.76246751E-01  1.55702499E-01  3.89941016E-02  0.00000000E+00  0.00000000E+00
  0.00000000E+00  0.00000000E+00  0.00000000E+00  0.00000000E+00  0.00000000E+00
  0.00000000E+00  0.00000000E+00  0.00000000E+00  0.00000000E+00  0.00000000E+00
  0.00000000E+00  0.00000000E+00  0.00000000E+00  0.00000000E+00  0.00000000E+00
  0.00000000E+00  0.00000000E+00  0.00000000E+00  0.00000000E+00  0.00000000E+00
  0.00000000E+00  0.00000000E+00  0.00000000E+00  0.00000000E+00  0.00000000E+00
  0.00000000E+00  0.00000000E+00  0.00000000E+00  0.00000000E+00
END DATA
SCF      ENERGY =      -2.895206143888   VIRIAL(-V/T)  =   2.00000000

$MOSPIN
 1 2
$END
