atomref-proatoms Ho_q0_mult4_nist x2c-QZVPall
GAUSSIAN             70 MOL ORBITALS    437 PRIMITIVES        1 NUCLEI
  Ho   1    (CENTRE  1)   0.00000000  0.00000000  0.00000000  CHARGE = 67.0
CENTRE ASSIGNMENTS    1  1  1  1  1  1  1  1  1  1  1  1  1  1  1  1  1  1  1  1
CENTRE ASSIGNMENTS    1  1  1  1  1  1  1  1  1  1  1  1  1  1  1  1  1  1  1  1
CENTRE ASSIGNMENTS    1  1  1  1  1  1  1  1  1  1  1  1  1  1  1  1  1  1  1  1
CENTRE ASSIGNMENTS    1  1  1  1  1  1  1  1  1  1  1  1  1  1  1  1  1  1  1  1
CENTRE ASSIGNMENTS    1  1  1  1  1  1  1  1  1  1  1  1  1  1  1  1  1  1  1  1
CENTRE ASSIGNMENTS    1  1  1  1  1  1  1  1  1  1  1  1  1  1  1  1  1  1  1  1
CENTRE ASSIGNMENTS    1  1  1  1  1  1  1  1  1  1  1  1  1  1  1  1  1  1  1  1
CENTRE ASSIGNMENTS    1  1  1  1  1  1  1  1  1  1  1  1  1  1  1  1  1  1  1  1
CENTRE ASSIGNMENTS    1  1  1  1  1  1  1  1  1  1  1  1  1  1  1  1  1  1  1  1
CENTRE ASSIGNMENTS    1  1  1  1  1  1  1  1  1  1  1  1  1  1  1  1  1  1  1  1
CENTRE ASSIGNMENTS    1  1  1  1  1  1  1  1  1  1  1  1  1  1  1  1  1  1  1  1
CENTRE ASSIGNMENTS    1  1  1  1  1  1  1  1  1  1  1  1  1  1  1  1  1  1  1  1
CENTRE ASSIGNMENTS    1  1  1  1  1  1  1  1  1  1  1  1  1  1  1  1  1  1  1  1
CENTRE ASSIGNMENTS    1  1  1  1  1  1  1  1  1  1  1  1  1  1  1  1  1  1  1  1
CENTRE ASSIGNMENTS    1  1  1  1  1  1  1  1  1  1  1  1  1  1  1  1  1  1  1  1
CENTRE ASSIGNMENTS    1  1  1  1  1  1  1  1  1  1  1  1  1  1  1  1  1  1  1  1
CENTRE ASSIGNMENTS    1  1  1  1  1  1  1  1  1  1  1  1  1  1  1  1  1  1  1  1
CENTRE ASSIGNMENTS    1  1  1  1  1  1  1  1  1  1  1  1  1  1  1  1  1  1  1  1
CENTRE ASSIGNMENTS    1  1  1  1  1  1  1  1  1  1  1  1  1  1  1  1  1  1  1  1
CENTRE ASSIGNMENTS    1  1  1  1  1  1  1  1  1  1  1  1  1  1  1  1  1  1  1  1
CENTRE ASSIGNMENTS    1  1  1  1  1  1  1  1  1  1  1  1  1  1  1  1  1  1  1  1
CENTRE ASSIGNMENTS    1  1  1  1  1  1  1  1  1  1  1  1  1  1  1  1  1
TYPE ASSIGNMENTS      1  1  1  1  1  1  1  1  1  1  1  1  1  1  1  1  1  1  1  1
TYPE ASSIGNMENTS      1  1  1  1  1  1  1  1  1  1  2  3  4  2  3  4  2  3  4  2
TYPE ASSIGNMENTS      3  4  2  3  4  2  3  4  2  3  4  2  3  4  2  3  4  2  3  4
TYPE ASSIGNMENTS      2  3  4  2  3  4  2  3  4  2  3  4  2  3  4  2  3  4  2  3
TYPE ASSIGNMENTS      4  2  3  4  2  3  4  2  3  4  2  3  4  2  3  4  2  3  4  2
TYPE ASSIGNMENTS      3  4  2  3  4  2  3  4  2  3  4  2  3  4  2  3  4  2  3  4
TYPE ASSIGNMENTS      2  3  4  2  3  4  2  3  4  2  3  4  5  8  9  6 10  7  5  8
TYPE ASSIGNMENTS      9  6 10  7  5  8  9  6 10  7  5  8  9  6 10  7  5  8  9  6
TYPE ASSIGNMENTS     10  7  5  8  9  6 10  7  5  8  9  6 10  7  5  8  9  6 10  7
TYPE ASSIGNMENTS      5  8  9  6 10  7  5  8  9  6 10  7  5  8  9  6 10  7  5  8
TYPE ASSIGNMENTS      9  6 10  7  5  8  9  6 10  7  5  8  9  6 10  7  5  8  9  6
TYPE ASSIGNMENTS     10  7  5  8  9  6 10  7  5  8  9  6 10  7  5  8  9  6 10  7
TYPE ASSIGNMENTS      5  8  9  6 10  7  5  8  9  6 10  7 11 14 15 17 20 18 12 16
TYPE ASSIGNMENTS     19 13 11 14 15 17 20 18 12 16 19 13 11 14 15 17 20 18 12 16
TYPE ASSIGNMENTS     19 13 11 14 15 17 20 18 12 16 19 13 11 14 15 17 20 18 12 16
TYPE ASSIGNMENTS     19 13 11 14 15 17 20 18 12 16 19 13 11 14 15 17 20 18 12 16
TYPE ASSIGNMENTS     19 13 11 14 15 17 20 18 12 16 19 13 11 14 15 17 20 18 12 16
TYPE ASSIGNMENTS     19 13 11 14 15 17 20 18 12 16 19 13 11 14 15 17 20 18 12 16
TYPE ASSIGNMENTS     19 13 21 24 25 30 33 31 26 34 35 28 22 27 32 29 23 21 24 25
TYPE ASSIGNMENTS     30 33 31 26 34 35 28 22 27 32 29 23 21 24 25 30 33 31 26 34
TYPE ASSIGNMENTS     35 28 22 27 32 29 23 21 24 25 30 33 31 26 34 35 28 22 27 32
TYPE ASSIGNMENTS     29 23 21 24 25 30 33 31 26 34 35 28 22 27 32 29 23
EXPONENTS  7.1241069E+07 1.9508389E+07 5.8592008E+06 1.8143695E+06 6.0789504E+05
EXPONENTS  2.1522993E+05 8.0923020E+04 3.2062013E+04 1.3546496E+04 6.1189692E+03
EXPONENTS  2.8213318E+03 1.1618294E+03 5.8757616E+04 1.4016102E+04 4.3956158E+03
EXPONENTS  1.6259992E+03 6.4161408E+02 4.2133640E+02 1.5282194E+02 7.7994604E+01
EXPONENTS  4.2533377E+01 2.1310198E+01 1.1140590E+01 5.3753567E+00 2.6633575E+00
EXPONENTS  1.1844310E+00 5.5752705E-01 2.4050672E-01 8.2613974E-02 3.0762386E-02
EXPONENTS  2.0660000E+02 2.0660000E+02 2.0660000E+02 4.9939934E+06 4.9939934E+06
EXPONENTS  4.9939934E+06 1.3615109E+06 1.3615109E+06 1.3615109E+06 3.9494436E+05
EXPONENTS  3.9494436E+05 3.9494436E+05 1.2189681E+05 1.2189681E+05 1.2189681E+05
EXPONENTS  4.0030442E+04 4.0030442E+04 4.0030442E+04 1.3987177E+04 1.3987177E+04
EXPONENTS  1.3987177E+04 5.2000960E+03 5.2000960E+03 5.2000960E+03 2.0569541E+03
EXPONENTS  2.0569541E+03 2.0569541E+03 8.5194211E+02 8.5194211E+02 8.5194211E+02
EXPONENTS  3.7962626E+02 3.7962626E+02 3.7962626E+02 1.8091511E+02 1.8091511E+02
EXPONENTS  1.8091511E+02 9.0196710E+01 9.0196710E+01 9.0196710E+01 4.4859599E+01
EXPONENTS  4.4859599E+01 4.4859599E+01 1.3800660E+03 1.3800660E+03 1.3800660E+03
EXPONENTS  4.7712383E+02 4.7712383E+02 4.7712383E+02 2.1009011E+02 2.1009011E+02
EXPONENTS  2.1009011E+02 5.2522060E+01 5.2522060E+01 5.2522060E+01 2.7277243E+01
EXPONENTS  2.7277243E+01 2.7277243E+01 1.4031847E+01 1.4031847E+01 1.4031847E+01
EXPONENTS  6.2484325E+00 6.2484325E+00 6.2484325E+00 7.6329045E+01 7.6329045E+01
EXPONENTS  7.6329045E+01 2.7983908E+01 2.7983908E+01 2.7983908E+01 8.4206038E+00
EXPONENTS  8.4206038E+00 8.4206038E+00 4.5482060E+00 4.5482060E+00 4.5482060E+00
EXPONENTS  2.2660209E+00 2.2660209E+00 2.2660209E+00 4.1081836E+00 4.1081836E+00
EXPONENTS  4.1081836E+00 1.3299585E+00 1.3299585E+00 1.3299585E+00 7.1874807E-01
EXPONENTS  7.1874807E-01 7.1874807E-01 8.2860914E-01 8.2860914E-01 8.2860914E-01
EXPONENTS  3.3877513E-01 3.3877513E-01 3.3877513E-01 1.4478675E-01 1.4478675E-01
EXPONENTS  1.4478675E-01 7.5806900E-02 7.5806900E-02 7.5806900E-02 2.3002417E-02
EXPONENTS  2.3002417E-02 2.3002417E-02 4.7945282E+03 4.7945282E+03 4.7945282E+03
EXPONENTS  4.7945282E+03 4.7945282E+03 4.7945282E+03 1.3715259E+03 1.3715259E+03
EXPONENTS  1.3715259E+03 1.3715259E+03 1.3715259E+03 1.3715259E+03 5.3163582E+02
EXPONENTS  5.3163582E+02 5.3163582E+02 5.3163582E+02 5.3163582E+02 5.3163582E+02
EXPONENTS  2.3504560E+02 2.3504560E+02 2.3504560E+02 2.3504560E+02 2.3504560E+02
EXPONENTS  2.3504560E+02 1.1309820E+02 1.1309820E+02 1.1309820E+02 1.1309820E+02
EXPONENTS  1.1309820E+02 1.1309820E+02 5.6640660E+01 5.6640660E+01 5.6640660E+01
EXPONENTS  5.6640660E+01 5.6640660E+01 5.6640660E+01 2.8544370E+01 2.8544370E+01
EXPONENTS  2.8544370E+01 2.8544370E+01 2.8544370E+01 2.8544370E+01 1.4426970E+01
EXPONENTS  1.4426970E+01 1.4426970E+01 1.4426970E+01 1.4426970E+01 1.4426970E+01
EXPONENTS  2.9000000E+01 2.9000000E+01 2.9000000E+01 2.9000000E+01 2.9000000E+01
EXPONENTS  2.9000000E+01 2.4313344E+02 2.4313344E+02 2.4313344E+02 2.4313344E+02
EXPONENTS  2.4313344E+02 2.4313344E+02 9.1991829E+01 9.1991829E+01 9.1991829E+01
EXPONENTS  9.1991829E+01 9.1991829E+01 9.1991829E+01 1.7861101E+01 1.7861101E+01
EXPONENTS  1.7861101E+01 1.7861101E+01 1.7861101E+01 1.7861101E+01 6.7570970E+00
EXPONENTS  6.7570970E+00 6.7570970E+00 6.7570970E+00 6.7570970E+00 6.7570970E+00
EXPONENTS  1.0584101E+01 1.0584101E+01 1.0584101E+01 1.0584101E+01 1.0584101E+01
EXPONENTS  1.0584101E+01 3.8066672E+00 3.8066672E+00 3.8066672E+00 3.8066672E+00
EXPONENTS  3.8066672E+00 3.8066672E+00 1.9287496E+00 1.9287496E+00 1.9287496E+00
EXPONENTS  1.9287496E+00 1.9287496E+00 1.9287496E+00 8.4542926E-01 8.4542926E-01
EXPONENTS  8.4542926E-01 8.4542926E-01 8.4542926E-01 8.4542926E-01 3.4232616E-01
EXPONENTS  3.4232616E-01 3.4232616E-01 3.4232616E-01 3.4232616E-01 3.4232616E-01
EXPONENTS  1.3220553E-01 1.3220553E-01 1.3220553E-01 1.3220553E-01 1.3220553E-01
EXPONENTS  1.3220553E-01 4.8259001E-02 4.8259001E-02 4.8259001E-02 4.8259001E-02
EXPONENTS  4.8259001E-02 4.8259001E-02 2.4354789E+02 2.4354789E+02 2.4354789E+02
EXPONENTS  2.4354789E+02 2.4354789E+02 2.4354789E+02 2.4354789E+02 2.4354789E+02
EXPONENTS  2.4354789E+02 2.4354789E+02 9.6086151E+01 9.6086151E+01 9.6086151E+01
EXPONENTS  9.6086151E+01 9.6086151E+01 9.6086151E+01 9.6086151E+01 9.6086151E+01
EXPONENTS  9.6086151E+01 9.6086151E+01 4.8317250E+01 4.8317250E+01 4.8317250E+01
EXPONENTS  4.8317250E+01 4.8317250E+01 4.8317250E+01 4.8317250E+01 4.8317250E+01
EXPONENTS  4.8317250E+01 4.8317250E+01 2.4373619E+01 2.4373619E+01 2.4373619E+01
EXPONENTS  2.4373619E+01 2.4373619E+01 2.4373619E+01 2.4373619E+01 2.4373619E+01
EXPONENTS  2.4373619E+01 2.4373619E+01 1.2268878E+01 1.2268878E+01 1.2268878E+01
EXPONENTS  1.2268878E+01 1.2268878E+01 1.2268878E+01 1.2268878E+01 1.2268878E+01
EXPONENTS  1.2268878E+01 1.2268878E+01 6.1858917E+00 6.1858917E+00 6.1858917E+00
EXPONENTS  6.1858917E+00 6.1858917E+00 6.1858917E+00 6.1858917E+00 6.1858917E+00
EXPONENTS  6.1858917E+00 6.1858917E+00 3.0833355E+00 3.0833355E+00 3.0833355E+00
EXPONENTS  3.0833355E+00 3.0833355E+00 3.0833355E+00 3.0833355E+00 3.0833355E+00
EXPONENTS  3.0833355E+00 3.0833355E+00 1.4813504E+00 1.4813504E+00 1.4813504E+00
EXPONENTS  1.4813504E+00 1.4813504E+00 1.4813504E+00 1.4813504E+00 1.4813504E+00
EXPONENTS  1.4813504E+00 1.4813504E+00 6.7244237E-01 6.7244237E-01 6.7244237E-01
EXPONENTS  6.7244237E-01 6.7244237E-01 6.7244237E-01 6.7244237E-01 6.7244237E-01
EXPONENTS  6.7244237E-01 6.7244237E-01 2.7444797E-01 2.7444797E-01 2.7444797E-01
EXPONENTS  2.7444797E-01 2.7444797E-01 2.7444797E-01 2.7444797E-01 2.7444797E-01
EXPONENTS  2.7444797E-01 2.7444797E-01 9.1000000E-02 9.1000000E-02 9.1000000E-02
EXPONENTS  9.1000000E-02 9.1000000E-02 9.1000000E-02 9.1000000E-02 9.1000000E-02
EXPONENTS  9.1000000E-02 9.1000000E-02 2.2247100E+01 2.2247100E+01 2.2247100E+01
EXPONENTS  2.2247100E+01 2.2247100E+01 2.2247100E+01 2.2247100E+01 2.2247100E+01
EXPONENTS  2.2247100E+01 2.2247100E+01 2.2247100E+01 2.2247100E+01 2.2247100E+01
EXPONENTS  2.2247100E+01 2.2247100E+01 1.0135900E+01 1.0135900E+01 1.0135900E+01
EXPONENTS  1.0135900E+01 1.0135900E+01 1.0135900E+01 1.0135900E+01 1.0135900E+01
EXPONENTS  1.0135900E+01 1.0135900E+01 1.0135900E+01 1.0135900E+01 1.0135900E+01
EXPONENTS  1.0135900E+01 1.0135900E+01 4.6186000E+00 4.6186000E+00 4.6186000E+00
EXPONENTS  4.6186000E+00 4.6186000E+00 4.6186000E+00 4.6186000E+00 4.6186000E+00
EXPONENTS  4.6186000E+00 4.6186000E+00 4.6186000E+00 4.6186000E+00 4.6186000E+00
EXPONENTS  4.6186000E+00 4.6186000E+00 2.0375000E+00 2.0375000E+00 2.0375000E+00
EXPONENTS  2.0375000E+00 2.0375000E+00 2.0375000E+00 2.0375000E+00 2.0375000E+00
EXPONENTS  2.0375000E+00 2.0375000E+00 2.0375000E+00 2.0375000E+00 2.0375000E+00
EXPONENTS  2.0375000E+00 2.0375000E+00 4.9854000E-01 4.9854000E-01 4.9854000E-01
EXPONENTS  4.9854000E-01 4.9854000E-01 4.9854000E-01 4.9854000E-01 4.9854000E-01
EXPONENTS  4.9854000E-01 4.9854000E-01 4.9854000E-01 4.9854000E-01 4.9854000E-01
EXPONENTS  4.9854000E-01 4.9854000E-01
MO    1                     OCC NO =   1.00000000 ORB. ENERGY = -2039.19582649
  1.19196505E+02  1.16789049E+02  1.06119307E+02  9.09935706E+01  7.96324462E+01
  7.27507049E+01  6.71749023E+01  6.52989259E+01  6.30215041E+01  5.65698937E+01
  5.25355687E+01  3.49047942E+01  2.67828950E+00  5.69353897E+00  1.32432385E+01
  2.16611427E+01  1.50427263E+01  9.77652422E+00  1.21222498E+00 -4.20291259E-01
  1.88459631E-01 -7.07022504E-02  2.72270028E-02 -8.88244979E-03  2.92665239E-03
 -8.21010030E-04  2.44763360E-04 -5.13487050E-05  7.63240107E-06 -1.05767472E-06
  0.00000000E+00  0.00000000E+00  0.00000000E+00  0.00000000E+00  0.00000000E+00
  0.00000000E+00  0.00000000E+00  0.00000000E+00  0.00000000E+00  0.00000000E+00
  0.00000000E+00  0.00000000E+00  0.00000000E+00  0.00000000E+00  0.00000000E+00
  0.00000000E+00  0.00000000E+00  0.00000000E+00  0.00000000E+00  0.00000000E+00
  0.00000000E+00  0.00000000E+00  0.00000000E+00  0.00000000E+00  0.00000000E+00
  0.00000000E+00  0.00000000E+00  0.00000000E+00  0.00000000E+00  0.00000000E+00
  0.00000000E+00  0.00000000E+00  0.00000000E+00  0.00000000E+00  0.00000000E+00
  0.00000000E+00  0.00000000E+00  0.00000000E+00  0.00000000E+00  0.00000000E+00
  0.00000000E+00  0.00000000E+00  0.00000000E+00  0.00000000E+00  0.00000000E+00
  0.00000000E+00  0.00000000E+00  0.00000000E+00  0.00000000E+00  0.00000000E+00
  0.00000000E+00  0.00000000E+00  0.00000000E+00  0.00000000E+00  0.00000000E+00
  0.00000000E+00  0.00000000E+00  0.00000000E+00  0.00000000E+00  0.00000000E+00
  0.00000000E+00  0.00000000E+00  0.00000000E+00  0.00000000E+00  0.00000000E+00
  0.00000000E+00  0.00000000E+00  0.00000000E+00  0.00000000E+00  0.00000000E+00
  0.00000000E+00  0.00000000E+00  0.00000000E+00  0.00000000E+00  0.00000000E+00
  0.00000000E+00  0.00000000E+00  0.00000000E+00  0.00000000E+00  0.00000000E+00
  0.00000000E+00  0.00000000E+00  0.00000000E+00  0.00000000E+00  0.00000000E+00
  0.00000000E+00  0.00000000E+00  0.00000000E+00  0.00000000E+00  0.00000000E+00
  0.00000000E+00  0.00000000E+00  0.00000000E+00  0.00000000E+00  0.00000000E+00
  0.00000000E+00  0.00000000E+00  0.00000000E+00  0.00000000E+00  0.00000000E+00
  0.00000000E+00  0.00000000E+00  0.00000000E+00  0.00000000E+00  0.00000000E+00
  0.00000000E+00  0.00000000E+00  0.00000000E+00  0.00000000E+00  0.00000000E+00
  0.00000000E+00  0.00000000E+00  0.00000000E+00  0.00000000E+00  0.00000000E+00
  0.00000000E+00  0.00000000E+00  0.00000000E+00  0.00000000E+00  0.00000000E+00
  0.00000000E+00  0.00000000E+00  0.00000000E+00  0.00000000E+00  0.00000000E+00
  0.00000000E+00  0.00000000E+00  0.00000000E+00  0.00000000E+00  0.00000000E+00
  0.00000000E+00  0.00000000E+00  0.00000000E+00  0.00000000E+00  0.00000000E+00
  0.00000000E+00  0.00000000E+00  0.00000000E+00  0.00000000E+00  0.00000000E+00
  0.00000000E+00  0.00000000E+00  0.00000000E+00  0.00000000E+00  0.00000000E+00
  0.00000000E+00  0.00000000E+00  0.00000000E+00  0.00000000E+00  0.00000000E+00
  0.00000000E+00  0.00000000E+00  0.00000000E+00  0.00000000E+00  0.00000000E+00
  0.00000000E+00  0.00000000E+00  0.00000000E+00  0.00000000E+00  0.00000000E+00
  0.00000000E+00  0.00000000E+00  0.00000000E+00  0.00000000E+00  0.00000000E+00
  0.00000000E+00  0.00000000E+00  0.00000000E+00  0.00000000E+00  0.00000000E+00
  0.00000000E+00  0.00000000E+00  0.00000000E+00  0.00000000E+00  0.00000000E+00
  0.00000000E+00  0.00000000E+00  0.00000000E+00  0.00000000E+00  0.00000000E+00
  0.00000000E+00  0.00000000E+00  0.00000000E+00  0.00000000E+00  0.00000000E+00
  0.00000000E+00  0.00000000E+00  0.00000000E+00  0.00000000E+00  0.00000000E+00
  0.00000000E+00  0.00000000E+00  0.00000000E+00  0.00000000E+00  0.00000000E+00
  0.00000000E+00  0.00000000E+00  0.00000000E+00  0.00000000E+00  0.00000000E+00
  0.00000000E+00  0.00000000E+00  0.00000000E+00  0.00000000E+00  0.00000000E+00
  0.00000000E+00  0.00000000E+00  0.00000000E+00  0.00000000E+00  0.00000000E+00
  0.00000000E+00  0.00000000E+00  0.00000000E+00  0.00000000E+00  0.00000000E+00
  0.00000000E+00  0.00000000E+00  0.00000000E+00  0.00000000E+00  0.00000000E+00
  0.00000000E+00  0.00000000E+00  0.00000000E+00  0.00000000E+00  0.00000000E+00
  0.00000000E+00  0.00000000E+00  0.00000000E+00  0.00000000E+00  0.00000000E+00
  0.00000000E+00  0.00000000E+00  0.00000000E+00  0.00000000E+00  0.00000000E+00
  0.00000000E+00  0.00000000E+00  0.00000000E+00  0.00000000E+00  0.00000000E+00
  0.00000000E+00  0.00000000E+00  0.00000000E+00  0.00000000E+00  0.00000000E+00
  0.00000000E+00  0.00000000E+00  0.00000000E+00  0.00000000E+00  0.00000000E+00
  0.00000000E+00  0.00000000E+00  0.00000000E+00  0.00000000E+00  0.00000000E+00
  0.00000000E+00  0.00000000E+00  0.00000000E+00  0.00000000E+00  0.00000000E+00
  0.00000000E+00  0.00000000E+00  0.00000000E+00  0.00000000E+00  0.00000000E+00
  0.00000000E+00  0.00000000E+00  0.00000000E+00  0.00000000E+00  0.00000000E+00
  0.00000000E+00  0.00000000E+00  0.00000000E+00  0.00000000E+00  0.00000000E+00
  0.00000000E+00  0.00000000E+00  0.00000000E+00  0.00000000E+00  0.00000000E+00
  0.00000000E+00  0.00000000E+00  0.00000000E+00  0.00000000E+00  0.00000000E+00
  0.00000000E+00  0.00000000E+00  0.00000000E+00  0.00000000E+00  0.00000000E+00
  0.00000000E+00  0.00000000E+00  0.00000000E+00  0.00000000E+00  0.00000000E+00
  0.00000000E+00  0.00000000E+00  0.00000000E+00  0.00000000E+00  0.00000000E+00
  0.00000000E+00  0.00000000E+00  0.00000000E+00  0.00000000E+00  0.00000000E+00
  0.00000000E+00  0.00000000E+00  0.00000000E+00  0.00000000E+00  0.00000000E+00
  0.00000000E+00  0.00000000E+00  0.00000000E+00  0.00000000E+00  0.00000000E+00
  0.00000000E+00  0.00000000E+00  0.00000000E+00  0.00000000E+00  0.00000000E+00
  0.00000000E+00  0.00000000E+00  0.00000000E+00  0.00000000E+00  0.00000000E+00
  0.00000000E+00  0.00000000E+00  0.00000000E+00  0.00000000E+00  0.00000000E+00
  0.00000000E+00  0.00000000E+00  0.00000000E+00  0.00000000E+00  0.00000000E+00
  0.00000000E+00  0.00000000E+00  0.00000000E+00  0.00000000E+00  0.00000000E+00
  0.00000000E+00  0.00000000E+00  0.00000000E+00  0.00000000E+00  0.00000000E+00
  0.00000000E+00  0.00000000E+00  0.00000000E+00  0.00000000E+00  0.00000000E+00
  0.00000000E+00  0.00000000E+00  0.00000000E+00  0.00000000E+00  0.00000000E+00
  0.00000000E+00  0.00000000E+00  0.00000000E+00  0.00000000E+00  0.00000000E+00
  0.00000000E+00  0.00000000E+00  0.00000000E+00  0.00000000E+00  0.00000000E+00
  0.00000000E+00  0.00000000E+00  0.00000000E+00  0.00000000E+00  0.00000000E+00
  0.00000000E+00  0.00000000E+00  0.00000000E+00  0.00000000E+00  0.00000000E+00
  0.00000000E+00  0.00000000E+00  0.00000000E+00  0.00000000E+00  0.00000000E+00
  0.00000000E+00  0.00000000E+00  0.00000000E+00  0.00000000E+00  0.00000000E+00
  0.00000000E+00  0.00000000E+00  0.00000000E+00  0.00000000E+00  0.00000000E+00
  0.00000000E+00  0.00000000E+00  0.00000000E+00  0.00000000E+00  0.00000000E+00
  0.00000000E+00  0.00000000E+00  0.00000000E+00  0.00000000E+00  0.00000000E+00
  0.00000000E+00  0.00000000E+00  0.00000000E+00  0.00000000E+00  0.00000000E+00
  0.00000000E+00  0.00000000E+00
MO    2                     OCC NO =   1.00000000 ORB. ENERGY = -342.26101155
 -4.46767854E+01 -4.37744318E+01 -3.97752394E+01 -3.41058678E+01 -2.98475339E+01
 -2.72681455E+01 -2.51782441E+01 -2.44750977E+01 -2.36214831E+01 -2.12033147E+01
 -1.96911842E+01 -1.30828836E+01 -2.08044941E+00 -4.42264355E+00 -1.02871208E+01
 -1.68260046E+01 -1.63865304E+01  1.48527650E+00  1.43887249E+01  9.17177592E+00
  1.92394020E+00  7.03177047E-02 -6.62988737E-04 -6.25165117E-04  2.43399241E-04
 -8.29735129E-05  2.70962146E-05 -5.73765981E-06  8.72155998E-07 -1.21563514E-07
  0.00000000E+00  0.00000000E+00  0.00000000E+00  0.00000000E+00  0.00000000E+00
  0.00000000E+00  0.00000000E+00  0.00000000E+00  0.00000000E+00  0.00000000E+00
  0.00000000E+00  0.00000000E+00  0.00000000E+00  0.00000000E+00  0.00000000E+00
  0.00000000E+00  0.00000000E+00  0.00000000E+00  0.00000000E+00  0.00000000E+00
  0.00000000E+00  0.00000000E+00  0.00000000E+00  0.00000000E+00  0.00000000E+00
  0.00000000E+00  0.00000000E+00  0.00000000E+00  0.00000000E+00  0.00000000E+00
  0.00000000E+00  0.00000000E+00  0.00000000E+00  0.00000000E+00  0.00000000E+00
  0.00000000E+00  0.00000000E+00  0.00000000E+00  0.00000000E+00  0.00000000E+00
  0.00000000E+00  0.00000000E+00  0.00000000E+00  0.00000000E+00  0.00000000E+00
  0.00000000E+00  0.00000000E+00  0.00000000E+00  0.00000000E+00  0.00000000E+00
  0.00000000E+00  0.00000000E+00  0.00000000E+00  0.00000000E+00  0.00000000E+00
  0.00000000E+00  0.00000000E+00  0.00000000E+00  0.00000000E+00  0.00000000E+00
  0.00000000E+00  0.00000000E+00  0.00000000E+00  0.00000000E+00  0.00000000E+00
  0.00000000E+00  0.00000000E+00  0.00000000E+00  0.00000000E+00  0.00000000E+00
  0.00000000E+00  0.00000000E+00  0.00000000E+00  0.00000000E+00  0.00000000E+00
  0.00000000E+00  0.00000000E+00  0.00000000E+00  0.00000000E+00  0.00000000E+00
  0.00000000E+00  0.00000000E+00  0.00000000E+00  0.00000000E+00  0.00000000E+00
  0.00000000E+00  0.00000000E+00  0.00000000E+00  0.00000000E+00  0.00000000E+00
  0.00000000E+00  0.00000000E+00  0.00000000E+00  0.00000000E+00  0.00000000E+00
  0.00000000E+00  0.00000000E+00  0.00000000E+00  0.00000000E+00  0.00000000E+00
  0.00000000E+00  0.00000000E+00  0.00000000E+00  0.00000000E+00  0.00000000E+00
  0.00000000E+00  0.00000000E+00  0.00000000E+00  0.00000000E+00  0.00000000E+00
  0.00000000E+00  0.00000000E+00  0.00000000E+00  0.00000000E+00  0.00000000E+00
  0.00000000E+00  0.00000000E+00  0.00000000E+00  0.00000000E+00  0.00000000E+00
  0.00000000E+00  0.00000000E+00  0.00000000E+00  0.00000000E+00  0.00000000E+00
  0.00000000E+00  0.00000000E+00  0.00000000E+00  0.00000000E+00  0.00000000E+00
  0.00000000E+00  0.00000000E+00  0.00000000E+00  0.00000000E+00  0.00000000E+00
  0.00000000E+00  0.00000000E+00  0.00000000E+00  0.00000000E+00  0.00000000E+00
  0.00000000E+00  0.00000000E+00  0.00000000E+00  0.00000000E+00  0.00000000E+00
  0.00000000E+00  0.00000000E+00  0.00000000E+00  0.00000000E+00  0.00000000E+00
  0.00000000E+00  0.00000000E+00  0.00000000E+00  0.00000000E+00  0.00000000E+00
  0.00000000E+00  0.00000000E+00  0.00000000E+00  0.00000000E+00  0.00000000E+00
  0.00000000E+00  0.00000000E+00  0.00000000E+00  0.00000000E+00  0.00000000E+00
  0.00000000E+00  0.00000000E+00  0.00000000E+00  0.00000000E+00  0.00000000E+00
  0.00000000E+00  0.00000000E+00  0.00000000E+00  0.00000000E+00  0.00000000E+00
  0.00000000E+00  0.00000000E+00  0.00000000E+00  0.00000000E+00  0.00000000E+00
  0.00000000E+00  0.00000000E+00  0.00000000E+00  0.00000000E+00  0.00000000E+00
  0.00000000E+00  0.00000000E+00  0.00000000E+00  0.00000000E+00  0.00000000E+00
  0.00000000E+00  0.00000000E+00  0.00000000E+00  0.00000000E+00  0.00000000E+00
  0.00000000E+00  0.00000000E+00  0.00000000E+00  0.00000000E+00  0.00000000E+00
  0.00000000E+00  0.00000000E+00  0.00000000E+00  0.00000000E+00  0.00000000E+00
  0.00000000E+00  0.00000000E+00  0.00000000E+00  0.00000000E+00  0.00000000E+00
  0.00000000E+00  0.00000000E+00  0.00000000E+00  0.00000000E+00  0.00000000E+00
  0.00000000E+00  0.00000000E+00  0.00000000E+00  0.00000000E+00  0.00000000E+00
  0.00000000E+00  0.00000000E+00  0.00000000E+00  0.00000000E+00  0.00000000E+00
  0.00000000E+00  0.00000000E+00  0.00000000E+00  0.00000000E+00  0.00000000E+00
  0.00000000E+00  0.00000000E+00  0.00000000E+00  0.00000000E+00  0.00000000E+00
  0.00000000E+00  0.00000000E+00  0.00000000E+00  0.00000000E+00  0.00000000E+00
  0.00000000E+00  0.00000000E+00  0.00000000E+00  0.00000000E+00  0.00000000E+00
  0.00000000E+00  0.00000000E+00  0.00000000E+00  0.00000000E+00  0.00000000E+00
  0.00000000E+00  0.00000000E+00  0.00000000E+00  0.00000000E+00  0.00000000E+00
  0.00000000E+00  0.00000000E+00  0.00000000E+00  0.00000000E+00  0.00000000E+00
  0.00000000E+00  0.00000000E+00  0.00000000E+00  0.00000000E+00  0.00000000E+00
  0.00000000E+00  0.00000000E+00  0.00000000E+00  0.00000000E+00  0.00000000E+00
  0.00000000E+00  0.00000000E+00  0.00000000E+00  0.00000000E+00  0.00000000E+00
  0.00000000E+00  0.00000000E+00  0.00000000E+00  0.00000000E+00  0.00000000E+00
  0.00000000E+00  0.00000000E+00  0.00000000E+00  0.00000000E+00  0.00000000E+00
  0.00000000E+00  0.00000000E+00  0.00000000E+00  0.00000000E+00  0.00000000E+00
  0.00000000E+00  0.00000000E+00  0.00000000E+00  0.00000000E+00  0.00000000E+00
  0.00000000E+00  0.00000000E+00  0.00000000E+00  0.00000000E+00  0.00000000E+00
  0.00000000E+00  0.00000000E+00  0.00000000E+00  0.00000000E+00  0.00000000E+00
  0.00000000E+00  0.00000000E+00  0.00000000E+00  0.00000000E+00  0.00000000E+00
  0.00000000E+00  0.00000000E+00  0.00000000E+00  0.00000000E+00  0.00000000E+00
  0.00000000E+00  0.00000000E+00  0.00000000E+00  0.00000000E+00  0.00000000E+00
  0.00000000E+00  0.00000000E+00  0.00000000E+00  0.00000000E+00  0.00000000E+00
  0.00000000E+00  0.00000000E+00  0.00000000E+00  0.00000000E+00  0.00000000E+00
  0.00000000E+00  0.00000000E+00  0.00000000E+00  0.00000000E+00  0.00000000E+00
  0.00000000E+00  0.00000000E+00  0.00000000E+00  0.00000000E+00  0.00000000E+00
  0.00000000E+00  0.00000000E+00  0.00000000E+00  0.00000000E+00  0.00000000E+00
  0.00000000E+00  0.00000000E+00  0.00000000E+00  0.00000000E+00  0.00000000E+00
  0.00000000E+00  0.00000000E+00  0.00000000E+00  0.00000000E+00  0.00000000E+00
  0.00000000E+00  0.00000000E+00  0.00000000E+00  0.00000000E+00  0.00000000E+00
  0.00000000E+00  0.00000000E+00  0.00000000E+00  0.00000000E+00  0.00000000E+00
  0.00000000E+00  0.00000000E+00  0.00000000E+00  0.00000000E+00  0.00000000E+00
  0.00000000E+00  0.00000000E+00  0.00000000E+00  0.00000000E+00  0.00000000E+00
  0.00000000E+00  0.00000000E+00  0.00000000E+00  0.00000000E+00  0.00000000E+00
  0.00000000E+00  0.00000000E+00  0.00000000E+00  0.00000000E+00  0.00000000E+00
  0.00000000E+00  0.00000000E+00  0.00000000E+00  0.00000000E+00  0.00000000E+00
  0.00000000E+00  0.00000000E+00  0.00000000E+00  0.00000000E+00  0.00000000E+00
  0.00000000E+00  0.00000000E+00  0.00000000E+00  0.00000000E+00  0.00000000E+00
  0.00000000E+00  0.00000000E+00  0.00000000E+00  0.00000000E+00  0.00000000E+00
  0.00000000E+00  0.00000000E+00
MO    3                     OCC NO =   1.00000000 ORB. ENERGY = -77.00747451
  2.09045997E+01  2.04823818E+01  1.86111300E+01  1.59583889E+01  1.39658828E+01
  1.27589678E+01  1.17810875E+01  1.14520800E+01  1.10526674E+01  9.92118844E+00
  9.21365134E+00  6.12157843E+00  1.07117771E+00  2.27712204E+00  5.29661259E+00
  8.66334027E+00  9.15969218E+00 -1.74014488E+00 -1.16550851E+01 -1.04940005E+01
  2.40035004E-01  5.80712424E+00  1.91567261E+00  8.22391375E-02 -2.83330173E-03
  7.34716276E-04 -2.18966471E-04  4.40671596E-05 -6.67948488E-06  9.28949379E-07
  0.00000000E+00  0.00000000E+00  0.00000000E+00  0.00000000E+00  0.00000000E+00
  0.00000000E+00  0.00000000E+00  0.00000000E+00  0.00000000E+00  0.00000000E+00
  0.00000000E+00  0.00000000E+00  0.00000000E+00  0.00000000E+00  0.00000000E+00
  0.00000000E+00  0.00000000E+00  0.00000000E+00  0.00000000E+00  0.00000000E+00
  0.00000000E+00  0.00000000E+00  0.00000000E+00  0.00000000E+00  0.00000000E+00
  0.00000000E+00  0.00000000E+00  0.00000000E+00  0.00000000E+00  0.00000000E+00
  0.00000000E+00  0.00000000E+00  0.00000000E+00  0.00000000E+00  0.00000000E+00
  0.00000000E+00  0.00000000E+00  0.00000000E+00  0.00000000E+00  0.00000000E+00
  0.00000000E+00  0.00000000E+00  0.00000000E+00  0.00000000E+00  0.00000000E+00
  0.00000000E+00  0.00000000E+00  0.00000000E+00  0.00000000E+00  0.00000000E+00
  0.00000000E+00  0.00000000E+00  0.00000000E+00  0.00000000E+00  0.00000000E+00
  0.00000000E+00  0.00000000E+00  0.00000000E+00  0.00000000E+00  0.00000000E+00
  0.00000000E+00  0.00000000E+00  0.00000000E+00  0.00000000E+00  0.00000000E+00
  0.00000000E+00  0.00000000E+00  0.00000000E+00  0.00000000E+00  0.00000000E+00
  0.00000000E+00  0.00000000E+00  0.00000000E+00  0.00000000E+00  0.00000000E+00
  0.00000000E+00  0.00000000E+00  0.00000000E+00  0.00000000E+00  0.00000000E+00
  0.00000000E+00  0.00000000E+00  0.00000000E+00  0.00000000E+00  0.00000000E+00
  0.00000000E+00  0.00000000E+00  0.00000000E+00  0.00000000E+00  0.00000000E+00
  0.00000000E+00  0.00000000E+00  0.00000000E+00  0.00000000E+00  0.00000000E+00
  0.00000000E+00  0.00000000E+00  0.00000000E+00  0.00000000E+00  0.00000000E+00
  0.00000000E+00  0.00000000E+00  0.00000000E+00  0.00000000E+00  0.00000000E+00
  0.00000000E+00  0.00000000E+00  0.00000000E+00  0.00000000E+00  0.00000000E+00
  0.00000000E+00  0.00000000E+00  0.00000000E+00  0.00000000E+00  0.00000000E+00
  0.00000000E+00  0.00000000E+00  0.00000000E+00  0.00000000E+00  0.00000000E+00
  0.00000000E+00  0.00000000E+00  0.00000000E+00  0.00000000E+00  0.00000000E+00
  0.00000000E+00  0.00000000E+00  0.00000000E+00  0.00000000E+00  0.00000000E+00
  0.00000000E+00  0.00000000E+00  0.00000000E+00  0.00000000E+00  0.00000000E+00
  0.00000000E+00  0.00000000E+00  0.00000000E+00  0.00000000E+00  0.00000000E+00
  0.00000000E+00  0.00000000E+00  0.00000000E+00  0.00000000E+00  0.00000000E+00
  0.00000000E+00  0.00000000E+00  0.00000000E+00  0.00000000E+00  0.00000000E+00
  0.00000000E+00  0.00000000E+00  0.00000000E+00  0.00000000E+00  0.00000000E+00
  0.00000000E+00  0.00000000E+00  0.00000000E+00  0.00000000E+00  0.00000000E+00
  0.00000000E+00  0.00000000E+00  0.00000000E+00  0.00000000E+00  0.00000000E+00
  0.00000000E+00  0.00000000E+00  0.00000000E+00  0.00000000E+00  0.00000000E+00
  0.00000000E+00  0.00000000E+00  0.00000000E+00  0.00000000E+00  0.00000000E+00
  0.00000000E+00  0.00000000E+00  0.00000000E+00  0.00000000E+00  0.00000000E+00
  0.00000000E+00  0.00000000E+00  0.00000000E+00  0.00000000E+00  0.00000000E+00
  0.00000000E+00  0.00000000E+00  0.00000000E+00  0.00000000E+00  0.00000000E+00
  0.00000000E+00  0.00000000E+00  0.00000000E+00  0.00000000E+00  0.00000000E+00
  0.00000000E+00  0.00000000E+00  0.00000000E+00  0.00000000E+00  0.00000000E+00
  0.00000000E+00  0.00000000E+00  0.00000000E+00  0.00000000E+00  0.00000000E+00
  0.00000000E+00  0.00000000E+00  0.00000000E+00  0.00000000E+00  0.00000000E+00
  0.00000000E+00  0.00000000E+00  0.00000000E+00  0.00000000E+00  0.00000000E+00
  0.00000000E+00  0.00000000E+00  0.00000000E+00  0.00000000E+00  0.00000000E+00
  0.00000000E+00  0.00000000E+00  0.00000000E+00  0.00000000E+00  0.00000000E+00
  0.00000000E+00  0.00000000E+00  0.00000000E+00  0.00000000E+00  0.00000000E+00
  0.00000000E+00  0.00000000E+00  0.00000000E+00  0.00000000E+00  0.00000000E+00
  0.00000000E+00  0.00000000E+00  0.00000000E+00  0.00000000E+00  0.00000000E+00
  0.00000000E+00  0.00000000E+00  0.00000000E+00  0.00000000E+00  0.00000000E+00
  0.00000000E+00  0.00000000E+00  0.00000000E+00  0.00000000E+00  0.00000000E+00
  0.00000000E+00  0.00000000E+00  0.00000000E+00  0.00000000E+00  0.00000000E+00
  0.00000000E+00  0.00000000E+00  0.00000000E+00  0.00000000E+00  0.00000000E+00
  0.00000000E+00  0.00000000E+00  0.00000000E+00  0.00000000E+00  0.00000000E+00