atomref-proatoms K_q0_mult2_nist x2c-QZVPall
GAUSSIAN             19 MOL ORBITALS    124 PRIMITIVES        1 NUCLEI
  K    1    (CENTRE  1)   0.00000000  0.00000000  0.00000000  CHARGE = 19.0
CENTRE ASSIGNMENTS    1  1  1  1  1  1  1  1  1  1  1  1  1  1  1  1  1  1  1  1
CENTRE ASSIGNMENTS    1  1  1  1  1  1  1  1  1  1  1  1  1  1  1  1  1  1  1  1
CENTRE ASSIGNMENTS    1  1  1  1  1  1  1  1  1  1  1  1  1  1  1  1  1  1  1  1
CENTRE ASSIGNMENTS    1  1  1  1  1  1  1  1  1  1  1  1  1  1  1  1  1  1  1  1
CENTRE ASSIGNMENTS    1  1  1  1  1  1  1  1  1  1  1  1  1  1  1  1  1  1  1  1
CENTRE ASSIGNMENTS    1  1  1  1  1  1  1  1  1  1  1  1  1  1  1  1  1  1  1  1
CENTRE ASSIGNMENTS    1  1  1  1
TYPE ASSIGNMENTS      1  1  1  1  1  1  1  1  1  1  1  1  1  1  1  1  1  1  1  1
TYPE ASSIGNMENTS      1  1  1  1  2  3  4  2  3  4  2  3  4  2  3  4  2  3  4  2
TYPE ASSIGNMENTS      3  4  2  3  4  2  3  4  2  3  4  2  3  4  2  3  4  2  3  4
TYPE ASSIGNMENTS      2  3  4  2  3  4  2  3  4  2  3  4  2  3  4  2  3  4  2  3
TYPE ASSIGNMENTS      4  2  3  4  5  8  9  6 10  7  5  8  9  6 10  7  5  8  9  6
TYPE ASSIGNMENTS     10  7  5  8  9  6 10  7  5  8  9  6 10  7 11 14 15 17 20 18
TYPE ASSIGNMENTS     12 16 19 13
EXPONENTS  2.3230219E+06 3.1809810E+05 7.0563665E+04 1.9843492E+04 6.4650998E+03
EXPONENTS  2.3326480E+03 9.0869537E+02 3.7669207E+02 1.6351018E+02 7.3866353E+01
EXPONENTS  3.3949050E+01 6.9202779E+02 2.1252759E+02 8.1095792E+01 3.5385942E+01
EXPONENTS  1.4481194E+01 6.9358646E+00 3.2439483E+00 1.2707907E+00 6.1996809E-01
EXPONENTS  2.7545763E-01 7.8246623E-02 4.2190035E-02 1.7145336E-02 7.2200974E+03
EXPONENTS  7.2200974E+03 7.2200974E+03 2.2112446E+03 2.2112446E+03 2.2112446E+03
EXPONENTS  7.3139886E+02 7.3139886E+02 7.3139886E+02 2.6127360E+02 2.6127360E+02
EXPONENTS  2.6127360E+02 1.0080000E+02 1.0080000E+02 1.0080000E+02 4.2205071E+01
EXPONENTS  4.2205071E+01 4.2205071E+01 1.8886391E+01 1.8886391E+01 1.8886391E+01
EXPONENTS  8.7996345E+00 8.7996345E+00 8.7996345E+00 4.1463871E+00 4.1463871E+00
EXPONENTS  4.1463871E+00 1.8702240E+00 1.8702240E+00 1.8702240E+00 6.8000000E+00
EXPONENTS  6.8000000E+00 6.8000000E+00 2.7456319E+01 2.7456319E+01 2.7456319E+01
EXPONENTS  9.2149445E+00 9.2149445E+00 9.2149445E+00 1.7302949E+00 1.7302949E+00
EXPONENTS  1.7302949E+00 7.8195381E-01 7.8195381E-01 7.8195381E-01 3.4603382E-01
EXPONENTS  3.4603382E-01 3.4603382E-01 1.4513350E-01 1.4513350E-01 1.4513350E-01
EXPONENTS  6.8000000E-02 6.8000000E-02 6.8000000E-02 3.2000000E-02 3.2000000E-02
EXPONENTS  3.2000000E-02 1.5300000E-02 1.5300000E-02 1.5300000E-02 6.0000000E+00
EXPONENTS  6.0000000E+00 6.0000000E+00 6.0000000E+00 6.0000000E+00 6.0000000E+00
EXPONENTS  1.7000000E+00 1.7000000E+00 1.7000000E+00 1.7000000E+00 1.7000000E+00
EXPONENTS  1.7000000E+00 4.5000000E-01 4.5000000E-01 4.5000000E-01 4.5000000E-01
EXPONENTS  4.5000000E-01 4.5000000E-01 1.2000000E-01 1.2000000E-01 1.2000000E-01
EXPONENTS  1.2000000E-01 1.2000000E-01 1.2000000E-01 3.0000000E-02 3.0000000E-02
EXPONENTS  3.0000000E-02 3.0000000E-02 3.0000000E-02 3.0000000E-02 2.6700000E-01
EXPONENTS  2.6700000E-01 2.6700000E-01 2.6700000E-01 2.6700000E-01 2.6700000E-01
EXPONENTS  2.6700000E-01 2.6700000E-01 2.6700000E-01 2.6700000E-01
MO    1                     OCC NO =   1.00000000 ORB. ENERGY = -130.54941420
  3.36981060E+00  2.59223987E+00  2.64027266E+00  3.09323653E+00  3.96031626E+00
  5.29267026E+00  6.94885840E+00  8.48900085E+00  8.64871312E+00  6.12587704E+00
  2.19985768E+00  4.55451691E-02  1.70025905E-01  3.51173846E-01  2.89766435E-01
  2.87661785E-01 -3.47435130E-02  1.18641568E-02 -3.58202754E-03  1.40967845E-03
 -3.30701857E-04  6.79907304E-05 -2.98343187E-05  3.46277641E-06  0.00000000E+00
  0.00000000E+00  0.00000000E+00  0.00000000E+00  0.00000000E+00  0.00000000E+00
  0.00000000E+00  0.00000000E+00  0.00000000E+00  0.00000000E+00  0.00000000E+00
  0.00000000E+00  0.00000000E+00  0.00000000E+00  0.00000000E+00  0.00000000E+00
  0.00000000E+00  0.00000000E+00  0.00000000E+00  0.00000000E+00  0.00000000E+00
  0.00000000E+00  0.00000000E+00  0.00000000E+00  0.00000000E+00  0.00000000E+00
  0.00000000E+00  0.00000000E+00  0.00000000E+00  0.00000000E+00  0.00000000E+00
  0.00000000E+00  0.00000000E+00  0.00000000E+00  0.00000000E+00  0.00000000E+00
  0.00000000E+00  0.00000000E+00  0.00000000E+00  0.00000000E+00  0.00000000E+00
  0.00000000E+00  0.00000000E+00  0.00000000E+00  0.00000000E+00  0.00000000E+00
  0.00000000E+00  0.00000000E+00  0.00000000E+00  0.00000000E+00  0.00000000E+00
  0.00000000E+00  0.00000000E+00  0.00000000E+00  0.00000000E+00  0.00000000E+00
  0.00000000E+00  0.00000000E+00  0.00000000E+00  0.00000000E+00  0.00000000E+00
  0.00000000E+00  0.00000000E+00  0.00000000E+00  0.00000000E+00  0.00000000E+00
  0.00000000E+00  0.00000000E+00  0.00000000E+00  0.00000000E+00  0.00000000E+00
  0.00000000E+00  0.00000000E+00  0.00000000E+00  0.00000000E+00  0.00000000E+00
  0.00000000E+00  0.00000000E+00  0.00000000E+00  0.00000000E+00  0.00000000E+00
  0.00000000E+00  0.00000000E+00  0.00000000E+00  0.00000000E+00  0.00000000E+00
  0.00000000E+00  0.00000000E+00  0.00000000E+00  0.00000000E+00  0.00000000E+00
  0.00000000E+00  0.00000000E+00  0.00000000E+00  0.00000000E+00  0.00000000E+00
  0.00000000E+00  0.00000000E+00  0.00000000E+00  0.00000000E+00
MO    2                     OCC NO =   1.00000000 ORB. ENERGY = -13.39377289
 -9.88079337E-01 -7.60083859E-01 -7.74167800E-01 -9.06983643E-01 -1.16122451E+00
 -1.55189082E+00 -2.03751018E+00 -2.48910319E+00 -2.53593324E+00 -1.79619962E+00
 -6.45031478E-01 -1.66037502E-01 -6.19839097E-01 -1.28022421E+00 -1.05636000E+00
  5.33439903E-01  1.61335133E+00  7.87694554E-01  7.06035510E-02 -8.91937055E-03
  1.81652259E-03 -3.39147457E-04  1.47909792E-04 -1.71267196E-05  0.00000000E+00
  0.00000000E+00  0.00000000E+00  0.00000000E+00  0.00000000E+00  0.00000000E+00
  0.00000000E+00  0.00000000E+00  0.00000000E+00  0.00000000E+00  0.00000000E+00
  0.00000000E+00  0.00000000E+00  0.00000000E+00  0.00000000E+00  0.00000000E+00
  0.00000000E+00  0.00000000E+00  0.00000000E+00  0.00000000E+00  0.00000000E+00
  0.00000000E+00  0.00000000E+00  0.00000000E+00  0.00000000E+00  0.00000000E+00
  0.00000000E+00  0.00000000E+00  0.00000000E+00  0.00000000E+00  0.00000000E+00
  0.00000000E+00  0.00000000E+00  0.00000000E+00  0.00000000E+00  0.00000000E+00
  0.00000000E+00  0.00000000E+00  0.00000000E+00  0.00000000E+00  0.00000000E+00
  0.00000000E+00  0.00000000E+00  0.00000000E+00  0.00000000E+00  0.00000000E+00
  0.00000000E+00  0.00000000E+00  0.00000000E+00  0.00000000E+00  0.00000000E+00
  0.00000000E+00  0.00000000E+00  0.00000000E+00  0.00000000E+00  0.00000000E+00
  0.00000000E+00  0.00000000E+00  0.00000000E+00  0.00000000E+00  0.00000000E+00
  0.00000000E+00  0.00000000E+00  0.00000000E+00  0.00000000E+00  0.00000000E+00
  0.00000000E+00  0.00000000E+00  0.00000000E+00  0.00000000E+00  0.00000000E+00
  0.00000000E+00  0.00000000E+00  0.00000000E+00  0.00000000E+00  0.00000000E+00
  0.00000000E+00  0.00000000E+00  0.00000000E+00  0.00000000E+00  0.00000000E+00
  0.00000000E+00  0.00000000E+00  0.00000000E+00  0.00000000E+00  0.00000000E+00
  0.00000000E+00  0.00000000E+00  0.00000000E+00  0.00000000E+00  0.00000000E+00
  0.00000000E+00  0.00000000E+00  0.00000000E+00  0.00000000E+00  0.00000000E+00
  0.00000000E+00  0.00000000E+00  0.00000000E+00  0.00000000E+00
MO    3                     OCC NO =   1.00000000 ORB. ENERGY =  -1.42505381
  3.35426607E-01  2.58028217E-01  2.62809340E-01  3.07896780E-01  3.94204779E-01
  5.26825581E-01  6.91680414E-01  8.44984210E-01  8.60881763E-01  6.09761910E-01
  2.18970999E-01  6.52472314E-02  2.43576207E-01  5.03085654E-01  4.15114445E-01
 -2.32386175E-01 -8.54032848E-01 -6.65930399E-01  1.36469376E-01  3.40255117E-01
  1.02002198E-01  3.18747114E-03 -7.95717588E-04  7.27199718E-05  0.00000000E+00
  0.00000000E+00  0.00000000E+00  0.00000000E+00  0.00000000E+00  0.00000000E+00
  0.00000000E+00  0.00000000E+00  0.00000000E+00  0.00000000E+00  0.00000000E+00
  0.00000000E+00  0.00000000E+00  0.00000000E+00  0.00000000E+00  0.00000000E+00
  0.00000000E+00  0.00000000E+00  0.00000000E+00  0.00000000E+00  0.00000000E+00
  0.00000000E+00  0.00000000E+00  0.00000000E+00  0.00000000E+00  0.00000000E+00
  0.00000000E+00  0.00000000E+00  0.00000000E+00  0.00000000E+00  0.00000000E+00
  0.00000000E+00  0.00000000E+00  0.00000000E+00  0.00000000E+00  0.00000000E+00
  0.00000000E+00  0.00000000E+00  0.00000000E+00  0.00000000E+00  0.00000000E+00
  0.00000000E+00  0.00000000E+00  0.00000000E+00  0.00000000E+00  0.00000000E+00
  0.00000000E+00  0.00000000E+00  0.00000000E+00  0.00000000E+00  0.00000000E+00
  0.00000000E+00  0.00000000E+00  0.00000000E+00  0.00000000E+00  0.00000000E+00
  0.00000000E+00  0.00000000E+00  0.00000000E+00  0.00000000E+00  0.00000000E+00
  0.00000000E+00  0.00000000E+00  0.00000000E+00  0.00000000E+00  0.00000000E+00
  0.00000000E+00  0.00000000E+00  0.00000000E+00  0.00000000E+00  0.00000000E+00
  0.00000000E+00  0.00000000E+00  0.00000000E+00  0.00000000E+00  0.00000000E+00
  0.00000000E+00  0.00000000E+00  0.00000000E+00  0.00000000E+00  0.00000000E+00
  0.00000000E+00  0.00000000E+00  0.00000000E+00  0.00000000E+00  0.00000000E+00
  0.00000000E+00  0.00000000E+00  0.00000000E+00  0.00000000E+00  0.00000000E+00
  0.00000000E+00  0.00000000E+00  0.00000000E+00  0.00000000E+00  0.00000000E+00
  0.00000000E+00  0.00000000E+00  0.00000000E+00  0.00000000E+00
MO    4                     OCC NO =   1.00000000 ORB. ENERGY =  -0.11004504
 -7.36045631E-02 -5.66205954E-02 -5.76697443E-02 -6.75635369E-02 -8.65025909E-02
 -1.15604326E-01 -1.51779357E-01 -1.85419678E-01 -1.88908169E-01 -1.33803515E-01
 -4.80500486E-02 -1.45714173E-02 -5.43969528E-02 -1.12352216E-01 -9.27059384E-02
  5.35143747E-02  1.94359996E-01  1.66195222E-01 -4.36936092E-02 -1.08360050E-01
 -5.93599057E-02 -8.61921833E-03  5.42663949E-02  1.27647164E-02  0.00000000E+00
  0.00000000E+00  0.00000000E+00  0.00000000E+00  0.00000000E+00  0.00000000E+00
  0.00000000E+00  0.00000000E+00  0.00000000E+00  0.00000000E+00  0.00000000E+00
  0.00000000E+00  0.00000000E+00  0.00000000E+00  0.00000000E+00  0.00000000E+00
  0.00000000E+00  0.00000000E+00  0.00000000E+00  0.00000000E+00  0.00000000E+00
  0.00000000E+00  0.00000000E+00  0.00000000E+00  0.00000000E+00  0.00000000E+00
  0.00000000E+00  0.00000000E+00  0.00000000E+00  0.00000000E+00  0.00000000E+00
  0.00000000E+00  0.00000000E+00  0.00000000E+00  0.00000000E+00  0.00000000E+00
  0.00000000E+00  0.00000000E+00  0.00000000E+00  0.00000000E+00  0.00000000E+00
  0.00000000E+00  0.00000000E+00  0.00000000E+00  0.00000000E+00  0.00000000E+00
  0.00000000E+00  0.00000000E+00  0.00000000E+00  0.00000000E+00  0.00000000E+00
  0.00000000E+00  0.00000000E+00  0.00000000E+00  0.00000000E+00  0.00000000E+00
  0.00000000E+00  0.00000000E+00  0.00000000E+00  0.00000000E+00  0.00000000E+00
  0.00000000E+00  0.00000000E+00  0.00000000E+00  0.00000000E+00  0.00000000E+00
  0.00000000E+00  0.00000000E+00  0.00000000E+00  0.00000000E+00  0.00000000E+00
  0.00000000E+00  0.00000000E+00  0.00000000E+00  0.00000000E+00  0.00000000E+00
  0.00000000E+00  0.00000000E+00  0.00000000E+00  0.00000000E+00  0.00000000E+00
  0.00000000E+00  0.00000000E+00  0.00000000E+00  0.00000000E+00  0.00000000E+00
  0.00000000E+00  0.00000000E+00  0.00000000E+00  0.00000000E+00  0.00000000E+00
  0.00000000E+00  0.00000000E+00  0.00000000E+00  0.00000000E+00  0.00000000E+00
  0.00000000E+00  0.00000000E+00  0.00000000E+00  0.00000000E+00
MO    5                     OCC NO =   1.00000000 ORB. ENERGY = -10.60403404
  0.00000000E+00  0.00000000E+00  0.00000000E+00  0.00000000E+00  0.00000000E+00
  0.00000000E+00  0.00000000E+00  0.00000000E+00  0.00000000E+00  0.00000000E+00
  0.00000000E+00  0.00000000E+00  0.00000000E+00  0.00000000E+00  0.00000000E+00
  0.00000000E+00  0.00000000E+00  0.00000000E+00  0.00000000E+00  0.00000000E+00
  0.00000000E+00  0.00000000E+00  0.00000000E+00  0.00000000E+00  8.82369868E+00
  0.00000000E+00  0.00000000E+00  8.25259005E+00  0.00000000E+00  0.00000000E+00
  1.19045923E+01  0.00000000E+00  0.00000000E+00  1.59107769E+01  0.00000000E+00
  0.00000000E+00  1.91177855E+01  0.00000000E+00  0.00000000E+00  1.91239840E+01
  0.00000000E+00  0.00000000E+00  1.47081003E+01  0.00000000E+00  0.00000000E+00
  8.12361815E+00  0.00000000E+00  0.00000000E+00  2.57501592E+00  0.00000000E+00
  0.00000000E+00  2.48871764E-01  0.00000000E+00  0.00000000E+00 -5.96722889E-02
  0.00000000E+00  0.00000000E+00 -3.66646026E-03  0.00000000E+00  0.00000000E+00
 -4.12154056E-03  0.00000000E+00  0.00000000E+00  5.95512294E-03  0.00000000E+00
  0.00000000E+00  4.80508398E-03  0.00000000E+00  0.00000000E+00  1.56438167E-03
  0.00000000E+00  0.00000000E+00 -9.95938192E-04  0.00000000E+00  0.00000000E+00
  3.69394743E-04  0.00000000E+00  0.00000000E+00 -8.65904983E-05  0.00000000E+00
  0.00000000E+00  1.12763609E-05  0.00000000E+00  0.00000000E+00  0.00000000E+00
  0.00000000E+00  0.00000000E+00  0.00000000E+00  0.00000000E+00  0.00000000E+00
  0.00000000E+00  0.00000000E+00  0.00000000E+00  0.00000000E+00  0.00000000E+00
  0.00000000E+00  0.00000000E+00  0.00000000E+00  0.00000000E+00  0.00000000E+00
  0.00000000E+00  0.00000000E+00  0.00000000E+00  0.00000000E+00  0.00000000E+00
  0.00000000E+00  0.00000000E+00  0.00000000E+00  0.00000000E+00  0.00000000E+00
  0.00000000E+00  0.00000000E+00  0.00000000E+00  0.00000000E+00  0.00000000E+00
  0.00000000E+00  0.00000000E+00  0.00000000E+00  0.00000000E+00  0.00000000E+00
  0.00000000E+00  0.00000000E+00  0.00000000E+00  0.00000000E+00
MO    6                     OCC NO =   1.00000000 ORB. ENERGY = -10.60403404
  0.00000000E+00  0.00000000E+00  0.00000000E+00  0.00000000E+00  0.00000000E+00
  0.00000000E+00  0.00000000E+00  0.00000000E+00  0.00000000E+00  0.00000000E+00
  0.00000000E+00  0.00000000E+00  0.00000000E+00  0.00000000E+00  0.00000000E+00
  0.00000000E+00  0.00000000E+00  0.00000000E+00  0.00000000E+00  0.00000000E+00
  0.00000000E+00  0.00000000E+00  0.00000000E+00  0.00000000E+00  0.00000000E+00
  8.82369868E+00  0.00000000E+00  0.00000000E+00  8.25259005E+00  0.00000000E+00
  0.00000000E+00  1.19045923E+01  0.00000000E+00  0.00000000E+00  1.59107769E+01
  0.00000000E+00  0.00000000E+00  1.91177855E+01  0.00000000E+00  0.00000000E+00
  1.91239840E+01  0.00000000E+00  0.00000000E+00  1.47081003E+01  0.00000000E+00
  0.00000000E+00  8.12361815E+00  0.00000000E+00  0.00000000E+00  2.57501592E+00
  0.00000000E+00  0.00000000E+00  2.48871764E-01  0.00000000E+00  0.00000000E+00
 -5.96722889E-02  0.00000000E+00  0.00000000E+00 -3.66646026E-03  0.00000000E+00
  0.00000000E+00 -4.12154056E-03  0.00000000E+00  0.00000000E+00  5.95512294E-03
  0.00000000E+00  0.00000000E+00  4.80508398E-03  0.00000000E+00  0.00000000E+00
  1.56438167E-03  0.00000000E+00  0.00000000E+00 -9.95938192E-04  0.00000000E+00
  0.00000000E+00  3.69394743E-04  0.00000000E+00  0.00000000E+00 -8.65904983E-05
  0.00000000E+00  0.00000000E+00  1.12763609E-05  0.00000000E+00  0.00000000E+00
  0.00000000E+00  0.00000000E+00  0.00000000E+00  0.00000000E+00  0.00000000E+00
  0.00000000E+00  0.00000000E+00  0.00000000E+00  0.00000000E+00  0.00000000E+00
  0.00000000E+00  0.00000000E+00  0.00000000E+00  0.00000000E+00  0.00000000E+00
  0.00000000E+00  0.00000000E+00  0.00000000E+00  0.00000000E+00  0.00000000E+00
  0.00000000E+00  0.00000000E+00  0.00000000E+00  0.00000000E+00  0.00000000E+00
  0.00000000E+00  0.00000000E+00  0.00000000E+00  0.00000000E+00  0.00000000E+00
  0.00000000E+00  0.00000000E+00  0.00000000E+00  0.00000000E+00  0.00000000E+00
  0.00000000E+00  0.00000000E+00  0.00000000E+00  0.00000000E+00
MO    7                     OCC NO =   1.00000000 ORB. ENERGY = -10.60403404
  0.00000000E+00  0.00000000E+00  0.00000000E+00  0.00000000E+00  0.00000000E+00
  0.00000000E+00  0.00000000E+00  0.00000000E+00  0.00000000E+00  0.00000000E+00
  0.00000000E+00  0.00000000E+00  0.00000000E+00  0.00000000E+00  0.00000000E+00
  0.00000000E+00  0.00000000E+00  0.00000000E+00  0.00000000E+00  0.00000000E+00
  0.00000000E+00  0.00000000E+00  0.00000000E+00  0.00000000E+00  0.00000000E+00
  0.00000000E+00  8.82369868E+00  0.00000000E+00  0.00000000E+00  8.25259005E+00
  0.00000000E+00  0.00000000E+00  1.19045923E+01  0.00000000E+00  0.00000000E+00
  1.59107769E+01  0.00000000E+00  0.00000000E+00  1.91177855E+01  0.00000000E+00
  0.00000000E+00  1.91239840E+01  0.00000000E+00  0.00000000E+00  1.47081003E+01
  0.00000000E+00  0.00000000E+00  8.12361815E+00  0.00000000E+00  0.00000000E+00
  2.57501592E+00  0.00000000E+00  0.00000000E+00  2.48871764E-01  0.00000000E+00
  0.00000000E+00 -5.96722889E-02  0.00000000E+00  0.00000000E+00 -3.66646026E-03
  0.00000000E+00  0.00000000E+00 -4.12154056E-03  0.00000000E+00  0.00000000E+00
  5.95512294E-03  0.00000000E+00  0.00000000E+00  4.80508398E-03  0.00000000E+00
  0.00000000E+00  1.56438167E-03  0.00000000E+00  0.00000000E+00 -9.95938192E-04
  0.00000000E+00  0.00000000E+00  3.69394743E-04  0.00000000E+00  0.00000000E+00
 -8.65904983E-05  0.00000000E+00  0.00000000E+00  1.12763609E-05  0.00000000E+00
  0.00000000E+00  0.00000000E+00  0.00000000E+00  0.00000000E+00  0.00000000E+00
  0.00000000E+00  0.00000000E+00  0.00000000E+00  0.00000000E+00  0.00000000E+00
  0.00000000E+00  0.00000000E+00  0.00000000E+00  0.00000000E+00  0.00000000E+00
  0.00000000E+00  0.00000000E+00  0.00000000E+00  0.00000000E+00  0.00000000E+00
  0.00000000E+00  0.00000000E+00  0.00000000E+00  0.00000000E+00  0.00000000E+00
  0.00000000E+00  0.00000000E+00  0.00000000E+00  0.00000000E+00  0.00000000E+00
  0.00000000E+00  0.00000000E+00  0.00000000E+00  0.00000000E+00  0.00000000E+00
  0.00000000E+00  0.00000000E+00  0.00000000E+00  0.00000000E+00
MO    8                     OCC NO =   1.00000000 ORB. ENERGY =  -0.76663647
  0.00000000E+00  0.00000000E+00  0.00000000E+00  0.00000000E+00  0.00000000E+00
  0.00000000E+00  0.00000000E+00  0.00000000E+00  0.00000000E+00  0.00000000E+00
  0.00000000E+00  0.00000000E+00  0.00000000E+00  0.00000000E+00  0.00000000E+00
  0.00000000E+00  0.00000000E+00  0.00000000E+00  0.00000000E+00  0.00000000E+00
  0.00000000E+00  0.00000000E+00  0.00000000E+00  0.00000000E+00 -2.83740522E+00
  0.00000000E+00  0.00000000E+00 -2.65375586E+00  0.00000000E+00  0.00000000E+00
 -3.82811717E+00  0.00000000E+00  0.00000000E+00 -5.11637161E+00  0.00000000E+00
  0.00000000E+00 -6.14763790E+00  0.00000000E+00  0.00000000E+00 -6.14963112E+00
  0.00000000E+00  0.00000000E+00 -4.72963120E+00  0.00000000E+00  0.00000000E+00
 -2.61228283E+00  0.00000000E+00  0.00000000E+00 -8.28038660E-01  0.00000000E+00
  0.00000000E+00 -8.00288028E-02  0.00000000E+00  0.00000000E+00  1.17712021E-01
  0.00000000E+00  0.00000000E+00 -3.63969860E-01  0.00000000E+00  0.00000000E+00
 -4.09145725E-01  0.00000000E+00  0.00000000E+00  5.91165623E-01  0.00000000E+00
  0.00000000E+00  4.77001145E-01  0.00000000E+00  0.00000000E+00  1.55296318E-01
  0.00000000E+00  0.00000000E+00  1.28188623E-02  0.00000000E+00  0.00000000E+00
  1.06051888E-03  0.00000000E+00  0.00000000E+00 -1.80694705E-04  0.00000000E+00
  0.00000000E+00  2.65465347E-05  0.00000000E+00  0.00000000E+00  0.00000000E+00
  0.00000000E+00  0.00000000E+00  0.00000000E+00  0.00000000E+00  0.00000000E+00
  0.00000000E+00  0.00000000E+00  0.00000000E+00  0.00000000E+00  0.00000000E+00
  0.00000000E+00  0.00000000E+00  0.00000000E+00  0.00000000E+00  0.00000000E+00
  0.00000000E+00  0.00000000E+00  0.00000000E+00  0.00000000E+00  0.00000000E+00
  0.00000000E+00  0.00000000E+00  0.00000000E+00  0.00000000E+00  0.00000000E+00
  0.00000000E+00  0.00000000E+00  0.00000000E+00  0.00000000E+00  0.00000000E+00
  0.00000000E+00  0.00000000E+00  0.00000000E+00  0.00000000E+00  0.00000000E+00
  0.00000000E+00  0.00000000E+00  0.00000000E+00  0.00000000E+00
MO    9                     OCC NO =   1.00000000 ORB. ENERGY =  -0.76663647
  0.00000000E+00  0.00000000E+00  0.00000000E+00  0.00000000E+00  0.00000000E+00
  0.00000000E+00  0.00000000E+00  0.00000000E+00  0.00000000E+00  0.00000000E+00
  0.00000000E+00  0.00000000E+00  0.00000000E+00  0.00000000E+00  0.00000000E+00
  0.00000000E+00  0.00000000E+00  0.00000000E+00  0.00000000E+00  0.00000000E+00
  0.00000000E+00  0.00000000E+00  0.00000000E+00  0.00000000E+00  0.00000000E+00
 -2.83740522E+00  0.00000000E+00  0.00000000E+00 -2.65375586E+00  0.00000000E+00
  0.00000000E+00 -3.82811717E+00  0.00000000E+00  0.00000000E+00 -5.11637161E+00
  0.00000000E+00  0.00000000E+00 -6.14763790E+00  0.00000000E+00  0.00000000E+00
 -6.14963112E+00  0.00000000E+00  0.00000000E+00 -4.72963120E+00  0.00000000E+00
  0.00000000E+00 -2.61228283E+00  0.00000000E+00  0.00000000E+00 -8.28038660E-01
  0.00000000E+00  0.00000000E+00 -8.00288028E-02  0.00000000E+00  0.00000000E+00
  1.17712021E-01  0.00000000E+00  0.00000000E+00 -3.63969860E-01  0.00000000E+00
  0.00000000E+00 -4.09145725E-01  0.00000000E+00  0.00000000E+00  5.91165623E-01
  0.00000000E+00  0.00000000E+00  4.77001145E-01  0.00000000E+00  0.00000000E+00
  1.55296318E-01  0.00000000E+00  0.00000000E+00  1.28188623E-02  0.00000000E+00
  0.00000000E+00  1.06051888E-03  0.00000000E+00  0.00000000E+00 -1.80694705E-04
  0.00000000E+00  0.00000000E+00  2.65465347E-05  0.00000000E+00  0.00000000E+00
  0.00000000E+00  0.00000000E+00  0.00000000E+00  0.00000000E+00  0.00000000E+00
  0.00000000E+00  0.00000000E+00  0.00000000E+00  0.00000000E+00  0.00000000E+00
  0.00000000E+00  0.00000000E+00  0.00000000E+00  0.00000000E+00  0.00000000E+00
  0.00000000E+00  0.00000000E+00  0.00000000E+00  0.00000000E+00  0.00000000E+00
  0.00000000E+00  0.00000000E+00  0.00000000E+00  0.00000000E+00  0.00000000E+00
  0.00000000E+00  0.00000000E+00  0.00000000E+00  0.00000000E+00  0.00000000E+00
  0.00000000E+00  0.00000000E+00  0.00000000E+00  0.00000000E+00  0.00000000E+00
  0.00000000E+00  0.00000000E+00  0.00000000E+00  0.00000000E+00
MO   10                    OCC NO =   1.00000000 ORB. ENERGY =  -0.76663647
  0.00000000E+00  0.00000000E+00  0.00000000E+00  0.00000000E+00  0.00000000E+00
  0.00000000E+00  0.00000000E+00  0.00000000E+00  0.00000000E+00  0.00000000E+00
  0.00000000E+00  0.00000000E+00  0.00000000E+00  0.00000000E+00  0.00000000E+00
  0.00000000E+00  0.00000000E+00  0.00000000E+00  0.00000000E+00  0.00000000E+00
  0.00000000E+00  0.00000000E+00  0.00000000E+00  0.00000000E+00  0.00000000E+00
  0.00000000E+00 -2.83740522E+00  0.00000000E+00  0.00000000E+00 -2.65375586E+00
  0.00000000E+00  0.00000000E+00 -3.82811717E+00  0.00000000E+00  0.00000000E+00
 -5.11637161E+00  0.00000000E+00  0.00000000E+00 -6.14763790E+00  0.00000000E+00
  0.00000000E+00 -6.14963112E+00  0.00000000E+00  0.00000000E+00 -4.72963120E+00
  0.00000000E+00  0.00000000E+00 -2.61228283E+00  0.00000000E+00  0.00000000E+00
 -8.28038660E-01  0.00000000E+00  0.00000000E+00 -8.00288028E-02  0.00000000E+00
  0.00000000E+00  1.17712021E-01  0.00000000E+00  0.00000000E+00 -3.63969860E-01
  0.00000000E+00  0.00000000E+00 -4.09145725E-01  0.00000000E+00  0.00000000E+00
  5.91165623E-01  0.00000000E+00  0.00000000E+00  4.77001145E-01  0.00000000E+00
  0.00000000E+00  1.55296318E-01  0.00000000E+00  0.00000000E+00  1.28188623E-02
  0.00000000E+00  0.00000000E+00  1.06051888E-03  0.00000000E+00  0.00000000E+00
 -1.80694705E-04  0.00000000E+00  0.00000000E+00  2.65465347E-05  0.00000000E+00
  0.00000000E+00  0.00000000E+00  0.00000000E+00  0.00000000E+00  0.00000000E+00
  0.00000000E+00  0.00000000E+00  0.00000000E+00  0.00000000E+00  0.00000000E+00
  0.00000000E+00  0.00000000E+00  0.00000000E+00  0.00000000E+00  0.00000000E+00
  0.00000000E+00  0.00000000E+00  0.00000000E+00  0.00000000E+00  0.00000000E+00
  0.00000000E+00  0.00000000E+00  0.00000000E+00  0.00000000E+00  0.00000000E+00
  0.00000000E+00  0.00000000E+00  0.00000000E+00  0.00000000E+00  0.00000000E+00
  0.00000000E+00  0.00000000E+00  0.00000000E+00  0.00000000E+00  0.00000000E+00
  0.00000000E+00  0.00000000E+00  0.00000000E+00  0.00000000E+00
MO   12                    OCC NO =   1.00000000 ORB. ENERGY = -130.54877073
  3.36977706E+00  2.59221406E+00  2.64024638E+00  3.09320574E+00  3.96027684E+00
  5.29261758E+00  6.94878922E+00  8.48891634E+00  8.64862702E+00  6.12581606E+00
  2.19983578E+00  4.55532803E-02  1.70056185E-01  3.51236387E-01  2.89818039E-01
  2.87674407E-01 -3.47498476E-02  1.18670252E-02 -3.58313828E-03  1.41005241E-03
 -3.30783110E-04  6.80068099E-05 -2.98408023E-05  3.46367794E-06  0.00000000E+00
  0.00000000E+00  0.00000000E+00  0.00000000E+00  0.00000000E+00  0.00000000E+00
  0.00000000E+00  0.00000000E+00  0.00000000E+00  0.00000000E+00  0.00000000E+00
  0.00000000E+00  0.00000000E+00  0.00000000E+00  0.00000000E+00  0.00000000E+00
  0.00000000E+00  0.00000000E+00  0.00000000E+00  0.00000000E+00  0.00000000E+00
  0.00000000E+00  0.00000000E+00  0.00000000E+00  0.00000000E+00  0.00000000E+00
  0.00000000E+00  0.00000000E+00  0.00000000E+00  0.00000000E+00  0.00000000E+00
  0.00000000E+00  0.00000000E+00  0.00000000E+00  0.00000000E+00  0.00000000E+00
  0.00000000E+00  0.00000000E+00  0.00000000E+00  0.00000000E+00  0.00000000E+00
  0.00000000E+00  0.00000000E+00  0.00000000E+00  0.00000000E+00  0.00000000E+00
  0.00000000E+00  0.00000000E+00  0.00000000E+00  0.00000000E+00  0.00000000E+00
  0.00000000E+00  0.00000000E+00  0.00000000E+00  0.00000000E+00  0.00000000E+00
  0.00000000E+00  0.00000000E+00  0.00000000E+00  0.00000000E+00  0.00000000E+00
  0.00000000E+00  0.00000000E+00  0.00000000E+00  0.00000000E+00  0.00000000E+00
  0.00000000E+00  0.00000000E+00  0.00000000E+00  0.00000000E+00  0.00000000E+00
  0.00000000E+00  0.00000000E+00  0.00000000E+00  0.00000000E+00  0.00000000E+00
  0.00000000E+00  0.00000000E+00  0.00000000E+00  0.00000000E+00  0.00000000E+00
  0.00000000E+00  0.00000000E+00  0.00000000E+00  0.00000000E+00  0.00000000E+00
  0.00000000E+00  0.00000000E+00  0.00000000E+00  0.00000000E+00  0.00000000E+00
  0.00000000E+00  0.00000000E+00  0.00000000E+00  0.00000000E+00  0.00000000E+00
  0.00000000E+00  0.00000000E+00  0.00000000E+00  0.00000000E+00
MO   13                    OCC NO =   1.00000000 ORB. ENERGY = -13.39285616
 -9.88042985E-01 -7.60055895E-01 -7.74139318E-01 -9.06950275E-01 -1.16118179E+00
 -1.55183372E+00 -2.03743522E+00 -2.48901162E+00 -2.53583994E+00 -1.79613354E+00
 -6.45007747E-01 -1.66023763E-01 -6.19787808E-01 -1.28011828E+00 -1.05627259E+00
  5.33247409E-01  1.61316640E+00  7.87889325E-01  7.05338231E-02 -8.88223927E-03
  1.80717240E-03 -3.37154068E-04  1.46991844E-04 -1.70263419E-05  0.00000000E+00
  0.00000000E+00  0.00000000E+00  0.00000000E+00  0.00000000E+00  0.00000000E+00
  0.00000000E+00  0.00000000E+00  0.00000000E+00  0.00000000E+00  0.00000000E+00
  0.00000000E+00  0.00000000E+00  0.00000000E+00  0.00000000E+00  0.00000000E+00
  0.00000000E+00  0.00000000E+00  0.00000000E+00  0.00000000E+00  0.00000000E+00
  0.00000000E+00  0.00000000E+00  0.00000000E+00  0.00000000E+00  0.00000000E+00
  0.00000000E+00  0.00000000E+00  0.00000000E+00  0.00000000E+00  0.00000000E+00
  0.00000000E+00  0.00000000E+00  0.00000000E+00  0.00000000E+00  0.00000000E+00
  0.00000000E+00  0.00000000E+00  0.00000000E+00  0.00000000E+00  0.00000000E+00
  0.00000000E+00  0.00000000E+00  0.00000000E+00  0.00000000E+00  0.00000000E+00
  0.00000000E+00  0.00000000E+00  0.00000000E+00  0.00000000E+00  0.00000000E+00
  0.00000000E+00  0.00000000E+00  0.00000000E+00  0.00000000E+00  0.00000000E+00
  0.00000000E+00  0.00000000E+00  0.00000000E+00  0.00000000E+00  0.00000000E+00
  0.00000000E+00  0.00000000E+00  0.00000000E+00  0.00000000E+00  0.00000000E+00
  0.00000000E+00  0.00000000E+00  0.00000000E+00  0.00000000E+00  0.00000000E+00
  0.00000000E+00  0.00000000E+00  0.00000000E+00  0.00000000E+00  0.00000000E+00
  0.00000000E+00  0.00000000E+00  0.00000000E+00  0.00000000E+00  0.00000000E+00
  0.00000000E+00  0.00000000E+00  0.00000000E+00  0.00000000E+00  0.00000000E+00
  0.00000000E+00  0.00000000E+00  0.00000000E+00  0.00000000E+00  0.00000000E+00
  0.00000000E+00  0.00000000E+00  0.00000000E+00  0.00000000E+00  0.00000000E+00
  0.00000000E+00  0.00000000E+00  0.00000000E+00  0.00000000E+00
MO   14                    OCC NO =   1.00000000 ORB. ENERGY =  -1.42209927
  3.35346498E-01  2.57966593E-01  2.62746574E-01  3.07823245E-01  3.94110633E-01
  5.26699760E-01  6.91515222E-01  8.44782404E-01  8.60676161E-01  6.09616282E-01
  2.18918703E-01  6.52088576E-02  2.43432953E-01  5.02789775E-01  4.14870304E-01
 -2.31539589E-01 -8.55325932E-01 -6.63224710E-01  1.32773149E-01  3.42862980E-01
  1.01371948E-01  3.21297112E-03 -8.29647475E-04  7.70493916E-05  0.00000000E+00
  0.00000000E+00  0.00000000E+00  0.00000000E+00  0.00000000E+00  0.00000000E+00
  0.00000000E+00  0.00000000E+00  0.00000000E+00  0.00000000E+00  0.00000000E+00
  0.00000000E+00  0.00000000E+00  0.00000000E+00  0.00000000E+00  0.00000000E+00
  0.00000000E+00  0.00000000E+00  0.00000000E+00  0.00000000E+00  0.00000000E+00
  0.00000000E+00  0.00000000E+00  0.00000000E+00  0.00000000E+00  0.00000000E+00
  0.00000000E+00  0.00000000E+00  0.00000000E+00  0.00000000E+00  0.00000000E+00
  0.00000000E+00  0.00000000E+00  0.00000000E+00  0.00000000E+00  0.00000000E+00
  0.00000000E+00  0.00000000E+00  0.00000000E+00  0.00000000E+00  0.00000000E+00
  0.00000000E+00  0.00000000E+00  0.00000000E+00  0.00000000E+00  0.00000000E+00
  0.00000000E+00  0.00000000E+00  0.00000000E+00  0.00000000E+00  0.00000000E+00
  0.00000000E+00  0.00000000E+00  0.00000000E+00  0.00000000E+00  0.00000000E+00
  0.00000000E+00  0.00000000E+00  0.00000000E+00  0.00000000E+00  0.00000000E+00
  0.00000000E+00  0.00000000E+00  0.00000000E+00  0.00000000E+00  0.00000000E+00
  0.00000000E+00  0.00000000E+00  0.00000000E+00  0.00000000E+00  0.00000000E+00
  0.00000000E+00  0.00000000E+00  0.00000000E+00  0.00000000E+00  0.00000000E+00