atomref-proatoms Kr_q0_mult1_nist x2c-QZVPall
GAUSSIAN             36 MOL ORBITALS    185 PRIMITIVES        1 NUCLEI
  Kr   1    (CENTRE  1)   0.00000000  0.00000000  0.00000000  CHARGE = 36.0
CENTRE ASSIGNMENTS    1  1  1  1  1  1  1  1  1  1  1  1  1  1  1  1  1  1  1  1
CENTRE ASSIGNMENTS    1  1  1  1  1  1  1  1  1  1  1  1  1  1  1  1  1  1  1  1
CENTRE ASSIGNMENTS    1  1  1  1  1  1  1  1  1  1  1  1  1  1  1  1  1  1  1  1
CENTRE ASSIGNMENTS    1  1  1  1  1  1  1  1  1  1  1  1  1  1  1  1  1  1  1  1
CENTRE ASSIGNMENTS    1  1  1  1  1  1  1  1  1  1  1  1  1  1  1  1  1  1  1  1
CENTRE ASSIGNMENTS    1  1  1  1  1  1  1  1  1  1  1  1  1  1  1  1  1  1  1  1
CENTRE ASSIGNMENTS    1  1  1  1  1  1  1  1  1  1  1  1  1  1  1  1  1  1  1  1
CENTRE ASSIGNMENTS    1  1  1  1  1  1  1  1  1  1  1  1  1  1  1  1  1  1  1  1
CENTRE ASSIGNMENTS    1  1  1  1  1  1  1  1  1  1  1  1  1  1  1  1  1  1  1  1
CENTRE ASSIGNMENTS    1  1  1  1  1
TYPE ASSIGNMENTS      1  1  1  1  1  1  1  1  1  1  1  1  1  1  1  1  1  1  1  1
TYPE ASSIGNMENTS      1  1  1  1  2  3  4  2  3  4  2  3  4  2  3  4  2  3  4  2
TYPE ASSIGNMENTS      3  4  2  3  4  2  3  4  2  3  4  2  3  4  2  3  4  2  3  4
TYPE ASSIGNMENTS      2  3  4  2  3  4  2  3  4  2  3  4  2  3  4  2  3  4  2  3
TYPE ASSIGNMENTS      4  2  3  4  2  3  4  2  3  4  5  8  9  6 10  7  5  8  9  6
TYPE ASSIGNMENTS     10  7  5  8  9  6 10  7  5  8  9  6 10  7  5  8  9  6 10  7
TYPE ASSIGNMENTS      5  8  9  6 10  7  5  8  9  6 10  7  5  8  9  6 10  7  5  8
TYPE ASSIGNMENTS      9  6 10  7  5  8  9  6 10  7 11 14 15 17 20 18 12 16 19 13
TYPE ASSIGNMENTS     11 14 15 17 20 18 12 16 19 13 21 24 25 30 33 31 26 34 35 28
TYPE ASSIGNMENTS     22 27 32 29 23
EXPONENTS  2.4906213E+07 3.5245699E+06 7.4045298E+05 1.9553728E+05 6.0329510E+04
EXPONENTS  2.0927664E+04 7.9275466E+03 3.1923709E+03 1.4048278E+03 6.4163310E+02
EXPONENTS  2.9783187E+02 3.4927883E+03 1.0344668E+03 4.0598509E+02 1.7948846E+02
EXPONENTS  9.7613089E+01 4.0192340E+01 1.9861931E+01 9.6291554E+00 4.5444813E+00
EXPONENTS  2.1236394E+00 7.1509983E-01 3.4620357E-01 1.4458938E-01 1.5162666E+05
EXPONENTS  1.5162666E+05 1.5162666E+05 3.3574926E+04 3.3574926E+04 3.3574926E+04
EXPONENTS  8.6984213E+03 8.6984213E+03 8.6984213E+03 2.6366451E+03 2.6366451E+03
EXPONENTS  2.6366451E+03 9.3508000E+02 9.3508000E+02 9.3508000E+02 3.8807589E+02
EXPONENTS  3.8807589E+02 3.8807589E+02 1.7891094E+02 1.7891094E+02 1.7891094E+02
EXPONENTS  8.6057367E+01 8.6057367E+01 8.6057367E+01 4.1851356E+01 4.1851356E+01
EXPONENTS  4.1851356E+01 2.0969127E+01 2.0969127E+01 2.0969127E+01 1.1287983E+01
EXPONENTS  1.1287983E+01 1.1287983E+01 3.7000000E+01 3.7000000E+01 3.7000000E+01
EXPONENTS  2.6947447E+02 2.6947447E+02 2.6947447E+02 9.7561628E+01 9.7561628E+01
EXPONENTS  9.7561628E+01 4.4887085E+01 4.4887085E+01 4.4887085E+01 1.1102234E+01
EXPONENTS  1.1102234E+01 1.1102234E+01 5.5764542E+00 5.5764542E+00 5.5764542E+00
EXPONENTS  2.8218560E+00 2.8218560E+00 2.8218560E+00 1.3875463E+00 1.3875463E+00
EXPONENTS  1.3875463E+00 6.0481252E-01 6.0481252E-01 6.0481252E-01 2.5193519E-01
EXPONENTS  2.5193519E-01 2.5193519E-01 9.9198213E-02 9.9198213E-02 9.9198213E-02
EXPONENTS  6.8721970E+02 6.8721970E+02 6.8721970E+02 6.8721970E+02 6.8721970E+02
EXPONENTS  6.8721970E+02 2.0334806E+02 2.0334806E+02 2.0334806E+02 2.0334806E+02
EXPONENTS  2.0334806E+02 2.0334806E+02 7.8586211E+01 7.8586211E+01 7.8586211E+01
EXPONENTS  7.8586211E+01 7.8586211E+01 7.8586211E+01 3.4203149E+01 3.4203149E+01
EXPONENTS  3.4203149E+01 3.4203149E+01 3.4203149E+01 3.4203149E+01 1.5903683E+01
EXPONENTS  1.5903683E+01 1.5903683E+01 1.5903683E+01 1.5903683E+01 1.5903683E+01
EXPONENTS  7.5997603E+00 7.5997603E+00 7.5997603E+00 7.5997603E+00 7.5997603E+00
EXPONENTS  7.5997603E+00 3.6321402E+00 3.6321402E+00 3.6321402E+00 3.6321402E+00
EXPONENTS  3.6321402E+00 3.6321402E+00 1.6900837E+00 1.6900837E+00 1.6900837E+00
EXPONENTS  1.6900837E+00 1.6900837E+00 1.6900837E+00 7.0112372E-01 7.0112372E-01
EXPONENTS  7.0112372E-01 7.0112372E-01 7.0112372E-01 7.0112372E-01 2.7000000E-01
EXPONENTS  2.7000000E-01 2.7000000E-01 2.7000000E-01 2.7000000E-01 2.7000000E-01
EXPONENTS  9.5570000E-01 9.5570000E-01 9.5570000E-01 9.5570000E-01 9.5570000E-01
EXPONENTS  9.5570000E-01 9.5570000E-01 9.5570000E-01 9.5570000E-01 9.5570000E-01
EXPONENTS  4.1300000E-01 4.1300000E-01 4.1300000E-01 4.1300000E-01 4.1300000E-01
EXPONENTS  4.1300000E-01 4.1300000E-01 4.1300000E-01 4.1300000E-01 4.1300000E-01
EXPONENTS  7.3950000E-01 7.3950000E-01 7.3950000E-01 7.3950000E-01 7.3950000E-01
EXPONENTS  7.3950000E-01 7.3950000E-01 7.3950000E-01 7.3950000E-01 7.3950000E-01
EXPONENTS  7.3950000E-01 7.3950000E-01 7.3950000E-01 7.3950000E-01 7.3950000E-01
MO    1                     OCC NO =   1.00000000 ORB. ENERGY = -522.11118102
  2.15492029E+01  1.61235608E+01  1.34802131E+01  1.25958285E+01  1.29227735E+01
  1.43855387E+01  1.68368538E+01  1.91545790E+01  2.03783450E+01  1.86954280E+01
  1.06541492E+01  9.84492242E-01  3.17035178E+00  6.61714613E+00  7.83643008E+00
  3.25748447E+00  1.77179737E-01 -1.19105442E-02  1.16701354E-03  1.48548047E-05
 -6.00706976E-05  1.70102494E-05 -6.07764012E-06  8.43525708E-07  0.00000000E+00
  0.00000000E+00  0.00000000E+00  0.00000000E+00  0.00000000E+00  0.00000000E+00
  0.00000000E+00  0.00000000E+00  0.00000000E+00  0.00000000E+00  0.00000000E+00
  0.00000000E+00  0.00000000E+00  0.00000000E+00  0.00000000E+00  0.00000000E+00
  0.00000000E+00  0.00000000E+00  0.00000000E+00  0.00000000E+00  0.00000000E+00
  0.00000000E+00  0.00000000E+00  0.00000000E+00  0.00000000E+00  0.00000000E+00
  0.00000000E+00  0.00000000E+00  0.00000000E+00  0.00000000E+00  0.00000000E+00
  0.00000000E+00  0.00000000E+00  0.00000000E+00  0.00000000E+00  0.00000000E+00
  0.00000000E+00  0.00000000E+00  0.00000000E+00  0.00000000E+00  0.00000000E+00
  0.00000000E+00  0.00000000E+00  0.00000000E+00  0.00000000E+00  0.00000000E+00
  0.00000000E+00  0.00000000E+00  0.00000000E+00  0.00000000E+00  0.00000000E+00
  0.00000000E+00  0.00000000E+00  0.00000000E+00  0.00000000E+00  0.00000000E+00
  0.00000000E+00  0.00000000E+00  0.00000000E+00  0.00000000E+00  0.00000000E+00
  0.00000000E+00  0.00000000E+00  0.00000000E+00  0.00000000E+00  0.00000000E+00
  0.00000000E+00  0.00000000E+00  0.00000000E+00  0.00000000E+00  0.00000000E+00
  0.00000000E+00  0.00000000E+00  0.00000000E+00  0.00000000E+00  0.00000000E+00
  0.00000000E+00  0.00000000E+00  0.00000000E+00  0.00000000E+00  0.00000000E+00
  0.00000000E+00  0.00000000E+00  0.00000000E+00  0.00000000E+00  0.00000000E+00
  0.00000000E+00  0.00000000E+00  0.00000000E+00  0.00000000E+00  0.00000000E+00
  0.00000000E+00  0.00000000E+00  0.00000000E+00  0.00000000E+00  0.00000000E+00
  0.00000000E+00  0.00000000E+00  0.00000000E+00  0.00000000E+00  0.00000000E+00
  0.00000000E+00  0.00000000E+00  0.00000000E+00  0.00000000E+00  0.00000000E+00
  0.00000000E+00  0.00000000E+00  0.00000000E+00  0.00000000E+00  0.00000000E+00
  0.00000000E+00  0.00000000E+00  0.00000000E+00  0.00000000E+00  0.00000000E+00
  0.00000000E+00  0.00000000E+00  0.00000000E+00  0.00000000E+00  0.00000000E+00
  0.00000000E+00  0.00000000E+00  0.00000000E+00  0.00000000E+00  0.00000000E+00
  0.00000000E+00  0.00000000E+00  0.00000000E+00  0.00000000E+00  0.00000000E+00
  0.00000000E+00  0.00000000E+00  0.00000000E+00  0.00000000E+00  0.00000000E+00
  0.00000000E+00  0.00000000E+00  0.00000000E+00  0.00000000E+00  0.00000000E+00
  0.00000000E+00  0.00000000E+00  0.00000000E+00  0.00000000E+00  0.00000000E+00
  0.00000000E+00  0.00000000E+00  0.00000000E+00  0.00000000E+00  0.00000000E+00
  0.00000000E+00  0.00000000E+00  0.00000000E+00  0.00000000E+00  0.00000000E+00
  0.00000000E+00  0.00000000E+00  0.00000000E+00  0.00000000E+00  0.00000000E+00
MO    2                     OCC NO =   1.00000000 ORB. ENERGY = -69.35583112
 -7.11952755E+00 -5.32697824E+00 -4.45365652E+00 -4.16146937E+00 -4.26948700E+00
 -4.75276228E+00 -5.56263936E+00 -6.32838036E+00 -6.73269397E+00 -6.17668391E+00
 -3.51996818E+00 -7.61676173E-01 -2.45281913E+00 -5.11951473E+00 -6.06284318E+00
 -1.14551021E+00  4.48562893E+00  3.78373622E+00  7.68931268E-01  4.46003902E-03
  3.39213868E-03 -6.26421042E-04  2.07859944E-04 -2.80900639E-05  0.00000000E+00
  0.00000000E+00  0.00000000E+00  0.00000000E+00  0.00000000E+00  0.00000000E+00
  0.00000000E+00  0.00000000E+00  0.00000000E+00  0.00000000E+00  0.00000000E+00
  0.00000000E+00  0.00000000E+00  0.00000000E+00  0.00000000E+00  0.00000000E+00
  0.00000000E+00  0.00000000E+00  0.00000000E+00  0.00000000E+00  0.00000000E+00
  0.00000000E+00  0.00000000E+00  0.00000000E+00  0.00000000E+00  0.00000000E+00
  0.00000000E+00  0.00000000E+00  0.00000000E+00  0.00000000E+00  0.00000000E+00
  0.00000000E+00  0.00000000E+00  0.00000000E+00  0.00000000E+00  0.00000000E+00
  0.00000000E+00  0.00000000E+00  0.00000000E+00  0.00000000E+00  0.00000000E+00
  0.00000000E+00  0.00000000E+00  0.00000000E+00  0.00000000E+00  0.00000000E+00
  0.00000000E+00  0.00000000E+00  0.00000000E+00  0.00000000E+00  0.00000000E+00
  0.00000000E+00  0.00000000E+00  0.00000000E+00  0.00000000E+00  0.00000000E+00
  0.00000000E+00  0.00000000E+00  0.00000000E+00  0.00000000E+00  0.00000000E+00
  0.00000000E+00  0.00000000E+00  0.00000000E+00  0.00000000E+00  0.00000000E+00
  0.00000000E+00  0.00000000E+00  0.00000000E+00  0.00000000E+00  0.00000000E+00
  0.00000000E+00  0.00000000E+00  0.00000000E+00  0.00000000E+00  0.00000000E+00
  0.00000000E+00  0.00000000E+00  0.00000000E+00  0.00000000E+00  0.00000000E+00
  0.00000000E+00  0.00000000E+00  0.00000000E+00  0.00000000E+00  0.00000000E+00
  0.00000000E+00  0.00000000E+00  0.00000000E+00  0.00000000E+00  0.00000000E+00
  0.00000000E+00  0.00000000E+00  0.00000000E+00  0.00000000E+00  0.00000000E+00
  0.00000000E+00  0.00000000E+00  0.00000000E+00  0.00000000E+00  0.00000000E+00
  0.00000000E+00  0.00000000E+00  0.00000000E+00  0.00000000E+00  0.00000000E+00
  0.00000000E+00  0.00000000E+00  0.00000000E+00  0.00000000E+00  0.00000000E+00
  0.00000000E+00  0.00000000E+00  0.00000000E+00  0.00000000E+00  0.00000000E+00
  0.00000000E+00  0.00000000E+00  0.00000000E+00  0.00000000E+00  0.00000000E+00
  0.00000000E+00  0.00000000E+00  0.00000000E+00  0.00000000E+00  0.00000000E+00
  0.00000000E+00  0.00000000E+00  0.00000000E+00  0.00000000E+00  0.00000000E+00
  0.00000000E+00  0.00000000E+00  0.00000000E+00  0.00000000E+00  0.00000000E+00
  0.00000000E+00  0.00000000E+00  0.00000000E+00  0.00000000E+00  0.00000000E+00
  0.00000000E+00  0.00000000E+00  0.00000000E+00  0.00000000E+00  0.00000000E+00
  0.00000000E+00  0.00000000E+00  0.00000000E+00  0.00000000E+00  0.00000000E+00
  0.00000000E+00  0.00000000E+00  0.00000000E+00  0.00000000E+00  0.00000000E+00
  0.00000000E+00  0.00000000E+00  0.00000000E+00  0.00000000E+00  0.00000000E+00
MO    3                     OCC NO =   1.00000000 ORB. ENERGY = -10.08358173
  2.87121801E+00  2.14830489E+00  1.79610497E+00  1.67826948E+00  1.72183166E+00
  1.91673065E+00  2.24334412E+00  2.55215806E+00  2.71521278E+00  2.49098075E+00
  1.41955993E+00  3.41334415E-01  1.09919624E+00  2.29423819E+00  2.71697751E+00
  5.19874132E-01 -2.81386442E+00 -3.37915562E+00 -3.79612549E-01  1.49938626E+00
  7.06725311E-01  3.25748554E-02 -4.86761708E-03  5.34344530E-04  0.00000000E+00
  0.00000000E+00  0.00000000E+00  0.00000000E+00  0.00000000E+00  0.00000000E+00
  0.00000000E+00  0.00000000E+00  0.00000000E+00  0.00000000E+00  0.00000000E+00
  0.00000000E+00  0.00000000E+00  0.00000000E+00  0.00000000E+00  0.00000000E+00
  0.00000000E+00  0.00000000E+00  0.00000000E+00  0.00000000E+00  0.00000000E+00
  0.00000000E+00  0.00000000E+00  0.00000000E+00  0.00000000E+00  0.00000000E+00
  0.00000000E+00  0.00000000E+00  0.00000000E+00  0.00000000E+00  0.00000000E+00
  0.00000000E+00  0.00000000E+00  0.00000000E+00  0.00000000E+00  0.00000000E+00
  0.00000000E+00  0.00000000E+00  0.00000000E+00  0.00000000E+00  0.00000000E+00
  0.00000000E+00  0.00000000E+00  0.00000000E+00  0.00000000E+00  0.00000000E+00
  0.00000000E+00  0.00000000E+00  0.00000000E+00  0.00000000E+00  0.00000000E+00
  0.00000000E+00  0.00000000E+00  0.00000000E+00  0.00000000E+00  0.00000000E+00
  0.00000000E+00  0.00000000E+00  0.00000000E+00  0.00000000E+00  0.00000000E+00
  0.00000000E+00  0.00000000E+00  0.00000000E+00  0.00000000E+00  0.00000000E+00
  0.00000000E+00  0.00000000E+00  0.00000000E+00  0.00000000E+00  0.00000000E+00
  0.00000000E+00  0.00000000E+00  0.00000000E+00  0.00000000E+00  0.00000000E+00
  0.00000000E+00  0.00000000E+00  0.00000000E+00  0.00000000E+00  0.00000000E+00
  0.00000000E+00  0.00000000E+00  0.00000000E+00  0.00000000E+00  0.00000000E+00
  0.00000000E+00  0.00000000E+00  0.00000000E+00  0.00000000E+00  0.00000000E+00
  0.00000000E+00  0.00000000E+00  0.00000000E+00  0.00000000E+00  0.00000000E+00
  0.00000000E+00  0.00000000E+00  0.00000000E+00  0.00000000E+00  0.00000000E+00
  0.00000000E+00  0.00000000E+00  0.00000000E+00  0.00000000E+00  0.00000000E+00
  0.00000000E+00  0.00000000E+00  0.00000000E+00  0.00000000E+00  0.00000000E+00
  0.00000000E+00  0.00000000E+00  0.00000000E+00  0.00000000E+00  0.00000000E+00
  0.00000000E+00  0.00000000E+00  0.00000000E+00  0.00000000E+00  0.00000000E+00
  0.00000000E+00  0.00000000E+00  0.00000000E+00  0.00000000E+00  0.00000000E+00
  0.00000000E+00  0.00000000E+00  0.00000000E+00  0.00000000E+00  0.00000000E+00
  0.00000000E+00  0.00000000E+00  0.00000000E+00  0.00000000E+00  0.00000000E+00
  0.00000000E+00  0.00000000E+00  0.00000000E+00  0.00000000E+00  0.00000000E+00
  0.00000000E+00  0.00000000E+00  0.00000000E+00  0.00000000E+00  0.00000000E+00
  0.00000000E+00  0.00000000E+00  0.00000000E+00  0.00000000E+00  0.00000000E+00
  0.00000000E+00  0.00000000E+00  0.00000000E+00  0.00000000E+00  0.00000000E+00
  0.00000000E+00  0.00000000E+00  0.00000000E+00  0.00000000E+00  0.00000000E+00
MO    4                     OCC NO =   1.00000000 ORB. ENERGY =  -0.94119766
 -9.62818933E-01 -7.20401103E-01 -6.02296261E-01 -5.62781936E-01 -5.77389846E-01
 -6.42746232E-01 -7.52271053E-01 -8.55827073E-01 -9.10504971E-01 -8.35312198E-01
 -4.76027655E-01 -1.16346099E-01 -3.74668327E-01 -7.82006302E-01 -9.26099801E-01
 -1.77398436E-01  1.00861077E+00  1.29179569E+00  1.45675951E-01 -8.03470862E-01
 -5.92264824E-01  1.69185308E-01  2.30901019E-01  4.15658844E-02  0.00000000E+00
  0.00000000E+00  0.00000000E+00  0.00000000E+00  0.00000000E+00  0.00000000E+00
  0.00000000E+00  0.00000000E+00  0.00000000E+00  0.00000000E+00  0.00000000E+00
  0.00000000E+00  0.00000000E+00  0.00000000E+00  0.00000000E+00  0.00000000E+00
  0.00000000E+00  0.00000000E+00  0.00000000E+00  0.00000000E+00  0.00000000E+00
  0.00000000E+00  0.00000000E+00  0.00000000E+00  0.00000000E+00  0.00000000E+00
  0.00000000E+00  0.00000000E+00  0.00000000E+00  0.00000000E+00  0.00000000E+00
  0.00000000E+00  0.00000000E+00  0.00000000E+00  0.00000000E+00  0.00000000E+00
  0.00000000E+00  0.00000000E+00  0.00000000E+00  0.00000000E+00  0.00000000E+00
  0.00000000E+00  0.00000000E+00  0.00000000E+00  0.00000000E+00  0.00000000E+00
  0.00000000E+00  0.00000000E+00  0.00000000E+00  0.00000000E+00  0.00000000E+00
  0.00000000E+00  0.00000000E+00  0.00000000E+00  0.00000000E+00  0.00000000E+00
  0.00000000E+00  0.00000000E+00  0.00000000E+00  0.00000000E+00  0.00000000E+00
  0.00000000E+00  0.00000000E+00  0.00000000E+00  0.00000000E+00  0.00000000E+00
  0.00000000E+00  0.00000000E+00  0.00000000E+00  0.00000000E+00  0.00000000E+00
  0.00000000E+00  0.00000000E+00  0.00000000E+00  0.00000000E+00  0.00000000E+00
  0.00000000E+00  0.00000000E+00  0.00000000E+00  0.00000000E+00  0.00000000E+00
  0.00000000E+00  0.00000000E+00  0.00000000E+00  0.00000000E+00  0.00000000E+00
  0.00000000E+00  0.00000000E+00  0.00000000E+00  0.00000000E+00  0.00000000E+00
  0.00000000E+00  0.00000000E+00  0.00000000E+00  0.00000000E+00  0.00000000E+00
  0.00000000E+00  0.00000000E+00  0.00000000E+00  0.00000000E+00  0.00000000E+00
  0.00000000E+00  0.00000000E+00  0.00000000E+00  0.00000000E+00  0.00000000E+00
  0.00000000E+00  0.00000000E+00  0.00000000E+00  0.00000000E+00  0.00000000E+00
  0.00000000E+00  0.00000000E+00  0.00000000E+00  0.00000000E+00  0.00000000E+00
  0.00000000E+00  0.00000000E+00  0.00000000E+00  0.00000000E+00  0.00000000E+00
  0.00000000E+00  0.00000000E+00  0.00000000E+00  0.00000000E+00  0.00000000E+00
  0.00000000E+00  0.00000000E+00  0.00000000E+00  0.00000000E+00  0.00000000E+00
  0.00000000E+00  0.00000000E+00  0.00000000E+00  0.00000000E+00  0.00000000E+00
  0.00000000E+00  0.00000000E+00  0.00000000E+00  0.00000000E+00  0.00000000E+00
  0.00000000E+00  0.00000000E+00  0.00000000E+00  0.00000000E+00  0.00000000E+00
  0.00000000E+00  0.00000000E+00  0.00000000E+00  0.00000000E+00  0.00000000E+00
  0.00000000E+00  0.00000000E+00  0.00000000E+00  0.00000000E+00  0.00000000E+00
  0.00000000E+00  0.00000000E+00  0.00000000E+00  0.00000000E+00  0.00000000E+00
MO    5                     OCC NO =   1.00000000 ORB. ENERGY = -61.28005245
  0.00000000E+00  0.00000000E+00  0.00000000E+00  0.00000000E+00  0.00000000E+00
  0.00000000E+00  0.00000000E+00  0.00000000E+00  0.00000000E+00  0.00000000E+00
  0.00000000E+00  0.00000000E+00  0.00000000E+00  0.00000000E+00  0.00000000E+00
  0.00000000E+00  0.00000000E+00  0.00000000E+00  0.00000000E+00  0.00000000E+00
  0.00000000E+00  0.00000000E+00  0.00000000E+00  0.00000000E+00  1.64000260E+02
  0.00000000E+00  0.00000000E+00  9.31614620E+01  0.00000000E+00  0.00000000E+00
  8.78272687E+01  0.00000000E+00  0.00000000E+00  9.44355393E+01  0.00000000E+00
  0.00000000E+00  1.05316941E+02  0.00000000E+00  0.00000000E+00  1.11094904E+02
  0.00000000E+00  0.00000000E+00  1.10209432E+02  0.00000000E+00  0.00000000E+00
  9.42645268E+01  0.00000000E+00  0.00000000E+00  5.69010332E+01  0.00000000E+00
  0.00000000E+00  1.79646062E+01  0.00000000E+00  0.00000000E+00  2.44628242E+00
  0.00000000E+00  0.00000000E+00 -2.91143476E-01  0.00000000E+00  0.00000000E+00
 -9.04068597E-02  0.00000000E+00  0.00000000E+00 -1.72537101E-01  0.00000000E+00
  0.00000000E+00 -1.60755446E-01  0.00000000E+00  0.00000000E+00  2.29651026E-01
  0.00000000E+00  0.00000000E+00  2.15250665E-01  0.00000000E+00  0.00000000E+00
 -3.24775735E-02  0.00000000E+00  0.00000000E+00  8.25581750E-03  0.00000000E+00
  0.00000000E+00 -1.36467806E-03  0.00000000E+00  0.00000000E+00  1.93313135E-04
  0.00000000E+00  0.00000000E+00 -1.73939811E-05  0.00000000E+00  0.00000000E+00
  0.00000000E+00  0.00000000E+00  0.00000000E+00  0.00000000E+00  0.00000000E+00
  0.00000000E+00  0.00000000E+00  0.00000000E+00  0.00000000E+00  0.00000000E+00
  0.00000000E+00  0.00000000E+00  0.00000000E+00  0.00000000E+00  0.00000000E+00
  0.00000000E+00  0.00000000E+00  0.00000000E+00  0.00000000E+00  0.00000000E+00
  0.00000000E+00  0.00000000E+00  0.00000000E+00  0.00000000E+00  0.00000000E+00
  0.00000000E+00  0.00000000E+00  0.00000000E+00  0.00000000E+00  0.00000000E+00
  0.00000000E+00  0.00000000E+00  0.00000000E+00  0.00000000E+00  0.00000000E+00
  0.00000000E+00  0.00000000E+00  0.00000000E+00  0.00000000E+00  0.00000000E+00
  0.00000000E+00  0.00000000E+00  0.00000000E+00  0.00000000E+00  0.00000000E+00
  0.00000000E+00  0.00000000E+00  0.00000000E+00  0.00000000E+00  0.00000000E+00
  0.00000000E+00  0.00000000E+00  0.00000000E+00  0.00000000E+00  0.00000000E+00
  0.00000000E+00  0.00000000E+00  0.00000000E+00  0.00000000E+00  0.00000000E+00
  0.00000000E+00  0.00000000E+00  0.00000000E+00  0.00000000E+00  0.00000000E+00
  0.00000000E+00  0.00000000E+00  0.00000000E+00  0.00000000E+00  0.00000000E+00
  0.00000000E+00  0.00000000E+00  0.00000000E+00  0.00000000E+00  0.00000000E+00
  0.00000000E+00  0.00000000E+00  0.00000000E+00  0.00000000E+00  0.00000000E+00
  0.00000000E+00  0.00000000E+00  0.00000000E+00  0.00000000E+00  0.00000000E+00
  0.00000000E+00  0.00000000E+00  0.00000000E+00  0.00000000E+00  0.00000000E+00
  0.00000000E+00  0.00000000E+00  0.00000000E+00  0.00000000E+00  0.00000000E+00
MO    6                     OCC NO =   1.00000000 ORB. ENERGY = -61.28005245
  0.00000000E+00  0.00000000E+00  0.00000000E+00  0.00000000E+00  0.00000000E+00
  0.00000000E+00  0.00000000E+00  0.00000000E+00  0.00000000E+00  0.00000000E+00
  0.00000000E+00  0.00000000E+00  0.00000000E+00  0.00000000E+00  0.00000000E+00
  0.00000000E+00  0.00000000E+00  0.00000000E+00  0.00000000E+00  0.00000000E+00
  0.00000000E+00  0.00000000E+00  0.00000000E+00  0.00000000E+00  0.00000000E+00
  1.64000260E+02  0.00000000E+00  0.00000000E+00  9.31614620E+01  0.00000000E+00
  0.00000000E+00  8.78272687E+01  0.00000000E+00  0.00000000E+00  9.44355393E+01
  0.00000000E+00  0.00000000E+00  1.05316941E+02  0.00000000E+00  0.00000000E+00
  1.11094904E+02  0.00000000E+00  0.00000000E+00  1.10209432E+02  0.00000000E+00
  0.00000000E+00  9.42645268E+01  0.00000000E+00  0.00000000E+00  5.69010332E+01
  0.00000000E+00  0.00000000E+00  1.79646062E+01  0.00000000E+00  0.00000000E+00
  2.44628242E+00  0.00000000E+00  0.00000000E+00 -2.91143476E-01  0.00000000E+00
  0.00000000E+00 -9.04068597E-02  0.00000000E+00  0.00000000E+00 -1.72537101E-01
  0.00000000E+00  0.00000000E+00 -1.60755446E-01  0.00000000E+00  0.00000000E+00
  2.29651026E-01  0.00000000E+00  0.00000000E+00  2.15250665E-01  0.00000000E+00
  0.00000000E+00 -3.24775735E-02  0.00000000E+00  0.00000000E+00  8.25581750E-03
  0.00000000E+00  0.00000000E+00 -1.36467806E-03  0.00000000E+00  0.00000000E+00
  1.93313135E-04  0.00000000E+00  0.00000000E+00 -1.73939811E-05  0.00000000E+00
  0.00000000E+00  0.00000000E+00  0.00000000E+00  0.00000000E+00  0.00000000E+00
  0.00000000E+00  0.00000000E+00  0.00000000E+00  0.00000000E+00  0.00000000E+00
  0.00000000E+00  0.00000000E+00  0.00000000E+00  0.00000000E+00  0.00000000E+00
  0.00000000E+00  0.00000000E+00  0.00000000E+00  0.00000000E+00  0.00000000E+00
  0.00000000E+00  0.00000000E+00  0.00000000E+00  0.00000000E+00  0.00000000E+00
  0.00000000E+00  0.00000000E+00  0.00000000E+00  0.00000000E+00  0.00000000E+00
  0.00000000E+00  0.00000000E+00  0.00000000E+00  0.00000000E+00  0.00000000E+00
  0.00000000E+00  0.00000000E+00  0.00000000E+00  0.00000000E+00  0.00000000E+00
  0.00000000E+00  0.00000000E+00  0.00000000E+00  0.00000000E+00  0.00000000E+00
  0.00000000E+00  0.00000000E+00  0.00000000E+00  0.00000000E+00  0.00000000E+00
  0.00000000E+00  0.00000000E+00  0.00000000E+00  0.00000000E+00  0.00000000E+00
  0.00000000E+00  0.00000000E+00  0.00000000E+00  0.00000000E+00  0.00000000E+00
  0.00000000E+00  0.00000000E+00  0.00000000E+00  0.00000000E+00  0.00000000E+00
  0.00000000E+00  0.00000000E+00  0.00000000E+00  0.00000000E+00  0.00000000E+00
  0.00000000E+00  0.00000000E+00  0.00000000E+00  0.00000000E+00  0.00000000E+00
  0.00000000E+00  0.00000000E+00  0.00000000E+00  0.00000000E+00  0.00000000E+00
  0.00000000E+00  0.00000000E+00  0.00000000E+00  0.00000000E+00  0.00000000E+00
  0.00000000E+00  0.00000000E+00  0.00000000E+00  0.00000000E+00  0.00000000E+00
  0.00000000E+00  0.00000000E+00  0.00000000E+00  0.00000000E+00  0.00000000E+00
MO    7                     OCC NO =   1.00000000 ORB. ENERGY = -61.28005245
  0.00000000E+00  0.00000000E+00  0.00000000E+00  0.00000000E+00  0.00000000E+00
  0.00000000E+00  0.00000000E+00  0.00000000E+00  0.00000000E+00  0.00000000E+00
  0.00000000E+00  0.00000000E+00  0.00000000E+00  0.00000000E+00  0.00000000E+00
  0.00000000E+00  0.00000000E+00  0.00000000E+00  0.00000000E+00  0.00000000E+00
  0.00000000E+00  0.00000000E+00  0.00000000E+00  0.00000000E+00  0.00000000E+00
  0.00000000E+00  1.64000260E+02  0.00000000E+00  0.00000000E+00  9.31614620E+01
  0.00000000E+00  0.00000000E+00  8.78272687E+01  0.00000000E+00  0.00000000E+00
  9.44355393E+01  0.00000000E+00  0.00000000E+00  1.05316941E+02  0.00000000E+00
  0.00000000E+00  1.11094904E+02  0.00000000E+00  0.00000000E+00  1.10209432E+02
  0.00000000E+00  0.00000000E+00  9.42645268E+01  0.00000000E+00  0.00000000E+00
  5.69010332E+01  0.00000000E+00  0.00000000E+00  1.79646062E+01  0.00000000E+00
  0.00000000E+00  2.44628242E+00  0.00000000E+00  0.00000000E+00 -2.91143476E-01
  0.00000000E+00  0.00000000E+00 -9.04068597E-02  0.00000000E+00  0.00000000E+00
 -1.72537101E-01  0.00000000E+00  0.00000000E+00 -1.60755446E-01  0.00000000E+00
  0.00000000E+00  2.29651026E-01  0.00000000E+00  0.00000000E+00  2.15250665E-01
  0.00000000E+00  0.00000000E+00 -3.24775735E-02  0.00000000E+00  0.00000000E+00
  8.25581750E-03  0.00000000E+00  0.00000000E+00 -1.36467806E-03  0.00000000E+00
  0.00000000E+00  1.93313135E-04  0.00000000E+00  0.00000000E+00 -1.73939811E-05
  0.00000000E+00  0.00000000E+00  0.00000000E+00  0.00000000E+00  0.00000000E+00
  0.00000000E+00  0.00000000E+00  0.00000000E+00  0.00000000E+00  0.00000000E+00
  0.00000000E+00  0.00000000E+00  0.00000000E+00  0.00000000E+00  0.00000000E+00
  0.00000000E+00  0.00000000E+00  0.00000000E+00  0.00000000E+00  0.00000000E+00
  0.00000000E+00  0.00000000E+00  0.00000000E+00  0.00000000E+00  0.00000000E+00
  0.00000000E+00  0.00000000E+00  0.00000000E+00  0.00000000E+00  0.00000000E+00
  0.00000000E+00  0.00000000E+00  0.00000000E+00  0.00000000E+00  0.00000000E+00
  0.00000000E+00  0.00000000E+00  0.00000000E+00  0.00000000E+00  0.00000000E+00
  0.00000000E+00  0.00000000E+00  0.00000000E+00  0.00000000E+00  0.00000000E+00
  0.00000000E+00  0.00000000E+00  0.00000000E+00  0.00000000E+00  0.00000000E+00
  0.00000000E+00  0.00000000E+00  0.00000000E+00  0.00000000E+00  0.00000000E+00
  0.00000000E+00  0.00000000E+00  0.00000000E+00  0.00000000E+00  0.00000000E+00
  0.00000000E+00  0.00000000E+00  0.00000000E+00  0.00000000E+00  0.00000000E+00
  0.00000000E+00  0.00000000E+00  0.00000000E+00  0.00000000E+00  0.00000000E+00
  0.00000000E+00  0.00000000E+00  0.00000000E+00  0.00000000E+00  0.00000000E+00
  0.00000000E+00  0.00000000E+00  0.00000000E+00  0.00000000E+00  0.00000000E+00
  0.00000000E+00  0.00000000E+00  0.00000000E+00  0.00000000E+00  0.00000000E+00
  0.00000000E+00  0.00000000E+00  0.00000000E+00  0.00000000E+00  0.00000000E+00
  0.00000000E+00  0.00000000E+00  0.00000000E+00  0.00000000E+00  0.00000000E+00
MO    8                     OCC NO =   1.00000000 ORB. ENERGY =  -7.48822043
  0.00000000E+00  0.00000000E+00  0.00000000E+00  0.00000000E+00  0.00000000E+00
  0.00000000E+00  0.00000000E+00  0.00000000E+00  0.00000000E+00  0.00000000E+00
  0.00000000E+00  0.00000000E+00  0.00000000E+00  0.00000000E+00  0.00000000E+00
  0.00000000E+00  0.00000000E+00  0.00000000E+00  0.00000000E+00  0.00000000E+00
  0.00000000E+00  0.00000000E+00  0.00000000E+00  0.00000000E+00 -6.81086225E+01
  0.00000000E+00  0.00000000E+00 -3.86895659E+01  0.00000000E+00  0.00000000E+00
 -3.64742977E+01  0.00000000E+00  0.00000000E+00 -3.92186848E+01  0.00000000E+00
  0.00000000E+00 -4.37376854E+01  0.00000000E+00  0.00000000E+00 -4.61372494E+01
  0.00000000E+00  0.00000000E+00 -4.57695166E+01  0.00000000E+00  0.00000000E+00
 -3.91476641E+01  0.00000000E+00  0.00000000E+00 -2.36307613E+01  0.00000000E+00
  0.00000000E+00 -7.46062590E+00  0.00000000E+00  0.00000000E+00 -1.01593086E+00
  0.00000000E+00  0.00000000E+00  4.02445350E-01  0.00000000E+00  0.00000000E+00
 -2.26908594E+00  0.00000000E+00  0.00000000E+00 -4.33044032E+00  0.00000000E+00
  0.00000000E+00 -4.03473722E+00  0.00000000E+00  0.00000000E+00  5.76392010E+00
  0.00000000E+00  0.00000000E+00  5.40249113E+00  0.00000000E+00  0.00000000E+00
  2.10828188E+00  0.00000000E+00  0.00000000E+00  3.07634748E-01  0.00000000E+00
  0.00000000E+00  4.35981059E-03  0.00000000E+00  0.00000000E+00  2.18894499E-04
  0.00000000E+00  0.00000000E+00 -2.13031249E-05  0.00000000E+00  0.00000000E+00
  0.00000000E+00  0.00000000E+00  0.00000000E+00  0.00000000E+00  0.00000000E+00
  0.00000000E+00  0.00000000E+00  0.00000000E+00  0.00000000E+00  0.00000000E+00
  0.00000000E+00  0.00000000E+00  0.00000000E+00  0.00000000E+00  0.00000000E+00
  0.00000000E+00  0.00000000E+00  0.00000000E+00  0.00000000E+00  0.00000000E+00
  0.00000000E+00  0.00000000E+00  0.00000000E+00  0.00000000E+00  0.00000000E+00
  0.00000000E+00  0.00000000E+00  0.00000000E+00  0.00000000E+00  0.00000000E+00
  0.00000000E+00  0.00000000E+00  0.00000000E+00  0.00000000E+00  0.00000000E+00
  0.00000000E+00  0.00000000E+00  0.00000000E+00  0.00000000E+00  0.00000000E+00
  0.00000000E+00  0.00000000E+00  0.00000000E+00  0.00000000E+00  0.00000000E+00
  0.00000000E+00  0.00000000E+00  0.00000000E+00  0.00000000E+00  0.00000000E+00
  0.00000000E+00  0.00000000E+00  0.00000000E+00  0.00000000E+00  0.00000000E+00
  0.00000000E+00  0.00000000E+00  0.00000000E+00  0.00000000E+00  0.00000000E+00
  0.00000000E+00  0.00000000E+00  0.00000000E+00  0.00000000E+00  0.00000000E+00
  0.00000000E+00  0.00000000E+00  0.00000000E+00  0.00000000E+00  0.00000000E+00
  0.00000000E+00  0.00000000E+00  0.00000000E+00  0.00000000E+00  0.00000000E+00
  0.00000000E+00  0.00000000E+00  0.00000000E+00  0.00000000E+00  0.00000000E+00
  0.00000000E+00  0.00000000E+00  0.00000000E+00  0.00000000E+00  0.00000000E+00
  0.00000000E+00  0.00000000E+00  0.00000000E+00  0.00000000E+00  0.00000000E+00
  0.00000000E+00  0.00000000E+00  0.00000000E+00  0.00000000E+00  0.00000000E+00
MO    9                     OCC NO =   1.00000000 ORB. ENERGY =  -7.48822043
  0.00000000E+00  0.00000000E+00  0.00000000E+00  0.00000000E+00  0.00000000E+00
  0.00000000E+00  0.00000000E+00  0.00000000E+00  0.00000000E+00  0.00000000E+00
  0.00000000E+00  0.00000000E+00  0.00000000E+00  0.00000000E+00  0.00000000E+00
  0.00000000E+00  0.00000000E+00  0.00000000E+00  0.00000000E+00  0.00000000E+00
  0.00000000E+00  0.00000000E+00  0.00000000E+00  0.00000000E+00  0.00000000E+00
 -6.81086225E+01  0.00000000E+00  0.00000000E+00 -3.86895659E+01  0.00000000E+00
  0.00000000E+00 -3.64742977E+01  0.00000000E+00  0.00000000E+00 -3.92186848E+01