atomref-proatoms La_q0_mult2_nist x2c-QZVPall
GAUSSIAN             61 MOL ORBITALS    392 PRIMITIVES        1 NUCLEI
  La   1    (CENTRE  1)   0.00000000  0.00000000  0.00000000  CHARGE = 57.0
CENTRE ASSIGNMENTS    1  1  1  1  1  1  1  1  1  1  1  1  1  1  1  1  1  1  1  1
CENTRE ASSIGNMENTS    1  1  1  1  1  1  1  1  1  1  1  1  1  1  1  1  1  1  1  1
CENTRE ASSIGNMENTS    1  1  1  1  1  1  1  1  1  1  1  1  1  1  1  1  1  1  1  1
CENTRE ASSIGNMENTS    1  1  1  1  1  1  1  1  1  1  1  1  1  1  1  1  1  1  1  1
CENTRE ASSIGNMENTS    1  1  1  1  1  1  1  1  1  1  1  1  1  1  1  1  1  1  1  1
CENTRE ASSIGNMENTS    1  1  1  1  1  1  1  1  1  1  1  1  1  1  1  1  1  1  1  1
CENTRE ASSIGNMENTS    1  1  1  1  1  1  1  1  1  1  1  1  1  1  1  1  1  1  1  1
CENTRE ASSIGNMENTS    1  1  1  1  1  1  1  1  1  1  1  1  1  1  1  1  1  1  1  1
CENTRE ASSIGNMENTS    1  1  1  1  1  1  1  1  1  1  1  1  1  1  1  1  1  1  1  1
CENTRE ASSIGNMENTS    1  1  1  1  1  1  1  1  1  1  1  1  1  1  1  1  1  1  1  1
CENTRE ASSIGNMENTS    1  1  1  1  1  1  1  1  1  1  1  1  1  1  1  1  1  1  1  1
CENTRE ASSIGNMENTS    1  1  1  1  1  1  1  1  1  1  1  1  1  1  1  1  1  1  1  1
CENTRE ASSIGNMENTS    1  1  1  1  1  1  1  1  1  1  1  1  1  1  1  1  1  1  1  1
CENTRE ASSIGNMENTS    1  1  1  1  1  1  1  1  1  1  1  1  1  1  1  1  1  1  1  1
CENTRE ASSIGNMENTS    1  1  1  1  1  1  1  1  1  1  1  1  1  1  1  1  1  1  1  1
CENTRE ASSIGNMENTS    1  1  1  1  1  1  1  1  1  1  1  1  1  1  1  1  1  1  1  1
CENTRE ASSIGNMENTS    1  1  1  1  1  1  1  1  1  1  1  1  1  1  1  1  1  1  1  1
CENTRE ASSIGNMENTS    1  1  1  1  1  1  1  1  1  1  1  1  1  1  1  1  1  1  1  1
CENTRE ASSIGNMENTS    1  1  1  1  1  1  1  1  1  1  1  1  1  1  1  1  1  1  1  1
CENTRE ASSIGNMENTS    1  1  1  1  1  1  1  1  1  1  1  1
TYPE ASSIGNMENTS      1  1  1  1  1  1  1  1  1  1  1  1  1  1  1  1  1  1  1  1
TYPE ASSIGNMENTS      1  1  1  1  1  1  1  1  1  1  2  3  4  2  3  4  2  3  4  2
TYPE ASSIGNMENTS      3  4  2  3  4  2  3  4  2  3  4  2  3  4  2  3  4  2  3  4
TYPE ASSIGNMENTS      2  3  4  2  3  4  2  3  4  2  3  4  2  3  4  2  3  4  2  3
TYPE ASSIGNMENTS      4  2  3  4  2  3  4  2  3  4  2  3  4  2  3  4  2  3  4  2
TYPE ASSIGNMENTS      3  4  2  3  4  2  3  4  2  3  4  2  3  4  2  3  4  2  3  4
TYPE ASSIGNMENTS      2  3  4  2  3  4  2  3  4  2  3  4  5  8  9  6 10  7  5  8
TYPE ASSIGNMENTS      9  6 10  7  5  8  9  6 10  7  5  8  9  6 10  7  5  8  9  6
TYPE ASSIGNMENTS     10  7  5  8  9  6 10  7  5  8  9  6 10  7  5  8  9  6 10  7
TYPE ASSIGNMENTS      5  8  9  6 10  7  5  8  9  6 10  7  5  8  9  6 10  7  5  8
TYPE ASSIGNMENTS      9  6 10  7  5  8  9  6 10  7  5  8  9  6 10  7  5  8  9  6
TYPE ASSIGNMENTS     10  7  5  8  9  6 10  7  5  8  9  6 10  7  5  8  9  6 10  7
TYPE ASSIGNMENTS      5  8  9  6 10  7  5  8  9  6 10  7 11 14 15 17 20 18 12 16
TYPE ASSIGNMENTS     19 13 11 14 15 17 20 18 12 16 19 13 11 14 15 17 20 18 12 16
TYPE ASSIGNMENTS     19 13 11 14 15 17 20 18 12 16 19 13 11 14 15 17 20 18 12 16
TYPE ASSIGNMENTS     19 13 11 14 15 17 20 18 12 16 19 13 11 14 15 17 20 18 12 16
TYPE ASSIGNMENTS     19 13 11 14 15 17 20 18 12 16 19 13 11 14 15 17 20 18 12 16
TYPE ASSIGNMENTS     19 13 11 14 15 17 20 18 12 16 19 13 11 14 15 17 20 18 12 16
TYPE ASSIGNMENTS     19 13 21 24 25 30 33 31 26 34 35 28 22 27 32 29 23 21 24 25
TYPE ASSIGNMENTS     30 33 31 26 34 35 28 22 27 32 29 23
EXPONENTS  6.6711518E+07 1.8794985E+07 5.6655342E+06 1.7934644E+06 6.0461657E+05
EXPONENTS  2.1706774E+05 8.2030776E+04 3.1529533E+04 1.3634582E+04 6.0436740E+03
EXPONENTS  2.7656297E+03 1.0653304E+03 5.3575127E+04 1.2245515E+04 4.1193987E+03
EXPONENTS  1.5190590E+03 6.0753045E+02 3.0562700E+02 1.1566031E+02 7.0278751E+01
EXPONENTS  4.2578103E+01 1.8054356E+01 9.6816954E+00 4.3771125E+00 2.2121695E+00
EXPONENTS  8.6757560E-01 4.9065123E-01 2.2111881E-01 6.0211149E-02 2.4249181E-02
EXPONENTS  1.4000000E+02 1.4000000E+02 1.4000000E+02 2.2112483E+06 2.2112483E+06
EXPONENTS  2.2112483E+06 6.7726453E+05 6.7726453E+05 6.7726453E+05 2.1656070E+05
EXPONENTS  2.1656070E+05 2.1656070E+05 7.2293867E+04 7.2293867E+04 7.2293867E+04
EXPONENTS  2.5195545E+04 2.5195545E+04 2.5195545E+04 9.1674082E+03 9.1674082E+03
EXPONENTS  9.1674082E+03 3.4823296E+03 3.4823296E+03 3.4823296E+03 1.3813728E+03
EXPONENTS  1.3813728E+03 1.3813728E+03 5.7127335E+02 5.7127335E+02 5.7127335E+02
EXPONENTS  2.5476988E+02 2.5476988E+02 2.5476988E+02 1.2208887E+02 1.2208887E+02
EXPONENTS  1.2208887E+02 6.0919214E+01 6.0919214E+01 6.0919214E+01 3.0003504E+01
EXPONENTS  3.0003504E+01 3.0003504E+01 8.9527111E+02 8.9527111E+02 8.9527111E+02
EXPONENTS  3.1342777E+02 3.1342777E+02 3.1342777E+02 1.3775603E+02 1.3775603E+02
EXPONENTS  1.3775603E+02 3.5442148E+01 3.5442148E+01 3.5442148E+01 1.8250461E+01
EXPONENTS  1.8250461E+01 1.8250461E+01 9.3895655E+00 9.3895655E+00 9.3895655E+00
EXPONENTS  4.2148818E+00 4.2148818E+00 4.2148818E+00 5.4356061E+01 5.4356061E+01
EXPONENTS  5.4356061E+01 1.7356574E+01 1.7356574E+01 1.7356574E+01 5.6297900E+00
EXPONENTS  5.6297900E+00 5.6297900E+00 3.0711044E+00 3.0711044E+00 3.0711044E+00
EXPONENTS  1.5040435E+00 1.5040435E+00 1.5040435E+00 5.5326959E-01 5.5326959E-01
EXPONENTS  5.5326959E-01 2.6282532E+00 2.6282532E+00 2.6282532E+00 8.6806568E-01
EXPONENTS  8.6806568E-01 8.6806568E-01 4.8000295E-01 4.8000295E-01 4.8000295E-01
EXPONENTS  2.3105634E-01 2.3105634E-01 2.3105634E-01 9.7355659E-02 9.7355659E-02
EXPONENTS  9.7355659E-02 3.9680391E-02 3.9680391E-02 3.9680391E-02 1.5596574E-02
EXPONENTS  1.5596574E-02 1.5596574E-02 3.1745902E+03 3.1745902E+03 3.1745902E+03
EXPONENTS  3.1745902E+03 3.1745902E+03 3.1745902E+03 9.3227486E+02 9.3227486E+02
EXPONENTS  9.3227486E+02 9.3227486E+02 9.3227486E+02 9.3227486E+02 3.6601306E+02
EXPONENTS  3.6601306E+02 3.6601306E+02 3.6601306E+02 3.6601306E+02 3.6601306E+02
EXPONENTS  1.6208364E+02 1.6208364E+02 1.6208364E+02 1.6208364E+02 1.6208364E+02
EXPONENTS  1.6208364E+02 7.7969120E+01 7.7969120E+01 7.7969120E+01 7.7969120E+01
EXPONENTS  7.7969120E+01 7.7969120E+01 3.9519069E+01 3.9519069E+01 3.9519069E+01
EXPONENTS  3.9519069E+01 3.9519069E+01 3.9519069E+01 2.0444087E+01 2.0444087E+01
EXPONENTS  2.0444087E+01 2.0444087E+01 2.0444087E+01 2.0444087E+01 1.0478589E+01
EXPONENTS  1.0478589E+01 1.0478589E+01 1.0478589E+01 1.0478589E+01 1.0478589E+01
EXPONENTS  1.9000000E+01 1.9000000E+01 1.9000000E+01 1.9000000E+01 1.9000000E+01
EXPONENTS  1.9000000E+01 1.4137865E+02 1.4137865E+02 1.4137865E+02 1.4137865E+02
EXPONENTS  1.4137865E+02 1.4137865E+02 5.6000897E+01 5.6000897E+01 5.6000897E+01
EXPONENTS  5.6000897E+01 5.6000897E+01 5.6000897E+01 1.3044225E+01 1.3044225E+01
EXPONENTS  1.3044225E+01 1.3044225E+01 1.3044225E+01 1.3044225E+01 5.2252199E+00
EXPONENTS  5.2252199E+00 5.2252199E+00 5.2252199E+00 5.2252199E+00 5.2252199E+00
EXPONENTS  7.3326117E+00 7.3326117E+00 7.3326117E+00 7.3326117E+00 7.3326117E+00
EXPONENTS  7.3326117E+00 2.9560971E+00 2.9560971E+00 2.9560971E+00 2.9560971E+00
EXPONENTS  2.9560971E+00 2.9560971E+00 1.4379126E+00 1.4379126E+00 1.4379126E+00
EXPONENTS  1.4379126E+00 1.4379126E+00 1.4379126E+00 6.2395407E-01 6.2395407E-01
EXPONENTS  6.2395407E-01 6.2395407E-01 6.2395407E-01 6.2395407E-01 2.3155034E-01
EXPONENTS  2.3155034E-01 2.3155034E-01 2.3155034E-01 2.3155034E-01 2.3155034E-01
EXPONENTS  7.9248074E-02 7.9248074E-02 7.9248074E-02 7.9248074E-02 7.9248074E-02
EXPONENTS  7.9248074E-02 2.6510078E-02 2.6510078E-02 2.6510078E-02 2.6510078E-02
EXPONENTS  2.6510078E-02 2.6510078E-02 1.5300000E+02 1.5300000E+02 1.5300000E+02
EXPONENTS  1.5300000E+02 1.5300000E+02 1.5300000E+02 1.5300000E+02 1.5300000E+02
EXPONENTS  1.5300000E+02 1.5300000E+02 5.9000000E+01 5.9000000E+01 5.9000000E+01
EXPONENTS  5.9000000E+01 5.9000000E+01 5.9000000E+01 5.9000000E+01 5.9000000E+01
EXPONENTS  5.9000000E+01 5.9000000E+01 2.9000000E+01 2.9000000E+01 2.9000000E+01
EXPONENTS  2.9000000E+01 2.9000000E+01 2.9000000E+01 2.9000000E+01 2.9000000E+01
EXPONENTS  2.9000000E+01 2.9000000E+01 1.4000000E+01 1.4000000E+01 1.4000000E+01
EXPONENTS  1.4000000E+01 1.4000000E+01 1.4000000E+01 1.4000000E+01 1.4000000E+01
EXPONENTS  1.4000000E+01 1.4000000E+01 7.0000000E+00 7.0000000E+00 7.0000000E+00
EXPONENTS  7.0000000E+00 7.0000000E+00 7.0000000E+00 7.0000000E+00 7.0000000E+00
EXPONENTS  7.0000000E+00 7.0000000E+00 3.7000000E+00 3.7000000E+00 3.7000000E+00
EXPONENTS  3.7000000E+00 3.7000000E+00 3.7000000E+00 3.7000000E+00 3.7000000E+00
EXPONENTS  3.7000000E+00 3.7000000E+00 1.9000000E+00 1.9000000E+00 1.9000000E+00
EXPONENTS  1.9000000E+00 1.9000000E+00 1.9000000E+00 1.9000000E+00 1.9000000E+00
EXPONENTS  1.9000000E+00 1.9000000E+00 9.3000000E-01 9.3000000E-01 9.3000000E-01
EXPONENTS  9.3000000E-01 9.3000000E-01 9.3000000E-01 9.3000000E-01 9.3000000E-01
EXPONENTS  9.3000000E-01 9.3000000E-01 4.0000000E-01 4.0000000E-01 4.0000000E-01
EXPONENTS  4.0000000E-01 4.0000000E-01 4.0000000E-01 4.0000000E-01 4.0000000E-01
EXPONENTS  4.0000000E-01 4.0000000E-01 1.5000000E-01 1.5000000E-01 1.5000000E-01
EXPONENTS  1.5000000E-01 1.5000000E-01 1.5000000E-01 1.5000000E-01 1.5000000E-01
EXPONENTS  1.5000000E-01 1.5000000E-01 5.0000000E-02 5.0000000E-02 5.0000000E-02
EXPONENTS  5.0000000E-02 5.0000000E-02 5.0000000E-02 5.0000000E-02 5.0000000E-02
EXPONENTS  5.0000000E-02 5.0000000E-02 6.0000000E-01 6.0000000E-01 6.0000000E-01
EXPONENTS  6.0000000E-01 6.0000000E-01 6.0000000E-01 6.0000000E-01 6.0000000E-01
EXPONENTS  6.0000000E-01 6.0000000E-01 6.0000000E-01 6.0000000E-01 6.0000000E-01
EXPONENTS  6.0000000E-01 6.0000000E-01 1.5000000E-01 1.5000000E-01 1.5000000E-01
EXPONENTS  1.5000000E-01 1.5000000E-01 1.5000000E-01 1.5000000E-01 1.5000000E-01
EXPONENTS  1.5000000E-01 1.5000000E-01 1.5000000E-01 1.5000000E-01 1.5000000E-01
EXPONENTS  1.5000000E-01 1.5000000E-01
MO    1                     OCC NO =   1.00000000 ORB. ENERGY = -1425.21577989
  6.57256097E+01  5.89753107E+01  5.62041252E+01  4.88603778E+01  4.48425106E+01
  4.16331900E+01  4.05157007E+01  3.97847097E+01  4.06498242E+01  3.67642272E+01
  3.28915718E+01  1.87128485E+01  3.82133159E+00  5.82129396E+00  1.71373352E+01
  3.28227076E+01  2.54134220E+01  9.98334159E+00  1.16886652E+00 -4.70398099E-01
  1.55338248E-01 -3.20652671E-02  1.30579107E-02 -3.89887208E-03  1.36007384E-03
 -4.14138077E-04  1.82150146E-04 -3.01797232E-05  2.89782490E-06 -5.25758126E-07
  0.00000000E+00  0.00000000E+00  0.00000000E+00  0.00000000E+00  0.00000000E+00
  0.00000000E+00  0.00000000E+00  0.00000000E+00  0.00000000E+00  0.00000000E+00
  0.00000000E+00  0.00000000E+00  0.00000000E+00  0.00000000E+00  0.00000000E+00
  0.00000000E+00  0.00000000E+00  0.00000000E+00  0.00000000E+00  0.00000000E+00
  0.00000000E+00  0.00000000E+00  0.00000000E+00  0.00000000E+00  0.00000000E+00
  0.00000000E+00  0.00000000E+00  0.00000000E+00  0.00000000E+00  0.00000000E+00
  0.00000000E+00  0.00000000E+00  0.00000000E+00  0.00000000E+00  0.00000000E+00
  0.00000000E+00  0.00000000E+00  0.00000000E+00  0.00000000E+00  0.00000000E+00
  0.00000000E+00  0.00000000E+00  0.00000000E+00  0.00000000E+00  0.00000000E+00
  0.00000000E+00  0.00000000E+00  0.00000000E+00  0.00000000E+00  0.00000000E+00
  0.00000000E+00  0.00000000E+00  0.00000000E+00  0.00000000E+00  0.00000000E+00
  0.00000000E+00  0.00000000E+00  0.00000000E+00  0.00000000E+00  0.00000000E+00
  0.00000000E+00  0.00000000E+00  0.00000000E+00  0.00000000E+00  0.00000000E+00
  0.00000000E+00  0.00000000E+00  0.00000000E+00  0.00000000E+00  0.00000000E+00
  0.00000000E+00  0.00000000E+00  0.00000000E+00  0.00000000E+00  0.00000000E+00
  0.00000000E+00  0.00000000E+00  0.00000000E+00  0.00000000E+00  0.00000000E+00
  0.00000000E+00  0.00000000E+00  0.00000000E+00  0.00000000E+00  0.00000000E+00
  0.00000000E+00  0.00000000E+00  0.00000000E+00  0.00000000E+00  0.00000000E+00
  0.00000000E+00  0.00000000E+00  0.00000000E+00  0.00000000E+00  0.00000000E+00
  0.00000000E+00  0.00000000E+00  0.00000000E+00  0.00000000E+00  0.00000000E+00
  0.00000000E+00  0.00000000E+00  0.00000000E+00  0.00000000E+00  0.00000000E+00
  0.00000000E+00  0.00000000E+00  0.00000000E+00  0.00000000E+00  0.00000000E+00
  0.00000000E+00  0.00000000E+00  0.00000000E+00  0.00000000E+00  0.00000000E+00
  0.00000000E+00  0.00000000E+00  0.00000000E+00  0.00000000E+00  0.00000000E+00
  0.00000000E+00  0.00000000E+00  0.00000000E+00  0.00000000E+00  0.00000000E+00
  0.00000000E+00  0.00000000E+00  0.00000000E+00  0.00000000E+00  0.00000000E+00
  0.00000000E+00  0.00000000E+00  0.00000000E+00  0.00000000E+00  0.00000000E+00
  0.00000000E+00  0.00000000E+00  0.00000000E+00  0.00000000E+00  0.00000000E+00
  0.00000000E+00  0.00000000E+00  0.00000000E+00  0.00000000E+00  0.00000000E+00
  0.00000000E+00  0.00000000E+00  0.00000000E+00  0.00000000E+00  0.00000000E+00
  0.00000000E+00  0.00000000E+00  0.00000000E+00  0.00000000E+00  0.00000000E+00
  0.00000000E+00  0.00000000E+00  0.00000000E+00  0.00000000E+00  0.00000000E+00
  0.00000000E+00  0.00000000E+00  0.00000000E+00  0.00000000E+00  0.00000000E+00
  0.00000000E+00  0.00000000E+00  0.00000000E+00  0.00000000E+00  0.00000000E+00
  0.00000000E+00  0.00000000E+00  0.00000000E+00  0.00000000E+00  0.00000000E+00
  0.00000000E+00  0.00000000E+00  0.00000000E+00  0.00000000E+00  0.00000000E+00
  0.00000000E+00  0.00000000E+00  0.00000000E+00  0.00000000E+00  0.00000000E+00
  0.00000000E+00  0.00000000E+00  0.00000000E+00  0.00000000E+00  0.00000000E+00
  0.00000000E+00  0.00000000E+00  0.00000000E+00  0.00000000E+00  0.00000000E+00
  0.00000000E+00  0.00000000E+00  0.00000000E+00  0.00000000E+00  0.00000000E+00
  0.00000000E+00  0.00000000E+00  0.00000000E+00  0.00000000E+00  0.00000000E+00
  0.00000000E+00  0.00000000E+00  0.00000000E+00  0.00000000E+00  0.00000000E+00
  0.00000000E+00  0.00000000E+00  0.00000000E+00  0.00000000E+00  0.00000000E+00
  0.00000000E+00  0.00000000E+00  0.00000000E+00  0.00000000E+00  0.00000000E+00
  0.00000000E+00  0.00000000E+00  0.00000000E+00  0.00000000E+00  0.00000000E+00
  0.00000000E+00  0.00000000E+00  0.00000000E+00  0.00000000E+00  0.00000000E+00
  0.00000000E+00  0.00000000E+00  0.00000000E+00  0.00000000E+00  0.00000000E+00
  0.00000000E+00  0.00000000E+00  0.00000000E+00  0.00000000E+00  0.00000000E+00
  0.00000000E+00  0.00000000E+00  0.00000000E+00  0.00000000E+00  0.00000000E+00
  0.00000000E+00  0.00000000E+00  0.00000000E+00  0.00000000E+00  0.00000000E+00
  0.00000000E+00  0.00000000E+00  0.00000000E+00  0.00000000E+00  0.00000000E+00
  0.00000000E+00  0.00000000E+00  0.00000000E+00  0.00000000E+00  0.00000000E+00
  0.00000000E+00  0.00000000E+00  0.00000000E+00  0.00000000E+00  0.00000000E+00
  0.00000000E+00  0.00000000E+00  0.00000000E+00  0.00000000E+00  0.00000000E+00
  0.00000000E+00  0.00000000E+00  0.00000000E+00  0.00000000E+00  0.00000000E+00
  0.00000000E+00  0.00000000E+00  0.00000000E+00  0.00000000E+00  0.00000000E+00
  0.00000000E+00  0.00000000E+00  0.00000000E+00  0.00000000E+00  0.00000000E+00
  0.00000000E+00  0.00000000E+00  0.00000000E+00  0.00000000E+00  0.00000000E+00
  0.00000000E+00  0.00000000E+00  0.00000000E+00  0.00000000E+00  0.00000000E+00
  0.00000000E+00  0.00000000E+00  0.00000000E+00  0.00000000E+00  0.00000000E+00
  0.00000000E+00  0.00000000E+00  0.00000000E+00  0.00000000E+00  0.00000000E+00
  0.00000000E+00  0.00000000E+00  0.00000000E+00  0.00000000E+00  0.00000000E+00
  0.00000000E+00  0.00000000E+00  0.00000000E+00  0.00000000E+00  0.00000000E+00
  0.00000000E+00  0.00000000E+00  0.00000000E+00  0.00000000E+00  0.00000000E+00
  0.00000000E+00  0.00000000E+00  0.00000000E+00  0.00000000E+00  0.00000000E+00
  0.00000000E+00  0.00000000E+00  0.00000000E+00  0.00000000E+00  0.00000000E+00
  0.00000000E+00  0.00000000E+00  0.00000000E+00  0.00000000E+00  0.00000000E+00
  0.00000000E+00  0.00000000E+00  0.00000000E+00  0.00000000E+00  0.00000000E+00
  0.00000000E+00  0.00000000E+00  0.00000000E+00  0.00000000E+00  0.00000000E+00
  0.00000000E+00  0.00000000E+00  0.00000000E+00  0.00000000E+00  0.00000000E+00
  0.00000000E+00  0.00000000E+00  0.00000000E+00  0.00000000E+00  0.00000000E+00
  0.00000000E+00  0.00000000E+00  0.00000000E+00  0.00000000E+00  0.00000000E+00
  0.00000000E+00  0.00000000E+00
MO    2                     OCC NO =   1.00000000 ORB. ENERGY = -227.89767927
 -2.35121851E+01 -2.10973839E+01 -2.01060408E+01 -1.74789439E+01 -1.60416223E+01
 -1.48935441E+01 -1.44937819E+01 -1.42322827E+01 -1.45417622E+01 -1.31517580E+01
 -1.17663834E+01 -6.69419363E+00 -2.01961906E+00 -3.07662288E+00 -9.05728483E+00
 -1.73471902E+01 -1.72700115E+01 -4.20718077E+00  9.12236492E+00  5.58930210E+00
  4.87303419E+00  4.31738949E-01 -5.44194091E-02  1.14729917E-02 -3.56828553E-03
  1.00112650E-03 -4.31644003E-04  7.09001971E-05 -6.76179048E-06  1.22567057E-06
  0.00000000E+00  0.00000000E+00  0.00000000E+00  0.00000000E+00  0.00000000E+00
  0.00000000E+00  0.00000000E+00  0.00000000E+00  0.00000000E+00  0.00000000E+00
  0.00000000E+00  0.00000000E+00  0.00000000E+00  0.00000000E+00  0.00000000E+00
  0.00000000E+00  0.00000000E+00  0.00000000E+00  0.00000000E+00  0.00000000E+00
  0.00000000E+00  0.00000000E+00  0.00000000E+00  0.00000000E+00  0.00000000E+00
  0.00000000E+00  0.00000000E+00  0.00000000E+00  0.00000000E+00  0.00000000E+00
  0.00000000E+00  0.00000000E+00  0.00000000E+00  0.00000000E+00  0.00000000E+00
  0.00000000E+00  0.00000000E+00  0.00000000E+00  0.00000000E+00  0.00000000E+00
  0.00000000E+00  0.00000000E+00  0.00000000E+00  0.00000000E+00  0.00000000E+00
  0.00000000E+00  0.00000000E+00  0.00000000E+00  0.00000000E+00  0.00000000E+00
  0.00000000E+00  0.00000000E+00  0.00000000E+00  0.00000000E+00  0.00000000E+00
  0.00000000E+00  0.00000000E+00  0.00000000E+00  0.00000000E+00  0.00000000E+00
  0.00000000E+00  0.00000000E+00  0.00000000E+00  0.00000000E+00  0.00000000E+00
  0.00000000E+00  0.00000000E+00  0.00000000E+00  0.00000000E+00  0.00000000E+00
  0.00000000E+00  0.00000000E+00  0.00000000E+00  0.00000000E+00  0.00000000E+00
  0.00000000E+00  0.00000000E+00  0.00000000E+00  0.00000000E+00  0.00000000E+00
  0.00000000E+00  0.00000000E+00  0.00000000E+00  0.00000000E+00  0.00000000E+00
  0.00000000E+00  0.00000000E+00  0.00000000E+00  0.00000000E+00  0.00000000E+00
  0.00000000E+00  0.00000000E+00  0.00000000E+00  0.00000000E+00  0.00000000E+00
  0.00000000E+00  0.00000000E+00  0.00000000E+00  0.00000000E+00  0.00000000E+00
  0.00000000E+00  0.00000000E+00  0.00000000E+00  0.00000000E+00  0.00000000E+00
  0.00000000E+00  0.00000000E+00  0.00000000E+00  0.00000000E+00  0.00000000E+00
  0.00000000E+00  0.00000000E+00  0.00000000E+00  0.00000000E+00  0.00000000E+00
  0.00000000E+00  0.00000000E+00  0.00000000E+00  0.00000000E+00  0.00000000E+00
  0.00000000E+00  0.00000000E+00  0.00000000E+00  0.00000000E+00  0.00000000E+00
  0.00000000E+00  0.00000000E+00  0.00000000E+00  0.00000000E+00  0.00000000E+00
  0.00000000E+00  0.00000000E+00  0.00000000E+00  0.00000000E+00  0.00000000E+00
  0.00000000E+00  0.00000000E+00  0.00000000E+00  0.00000000E+00  0.00000000E+00
  0.00000000E+00  0.00000000E+00  0.00000000E+00  0.00000000E+00  0.00000000E+00
  0.00000000E+00  0.00000000E+00  0.00000000E+00  0.00000000E+00  0.00000000E+00
  0.00000000E+00  0.00000000E+00  0.00000000E+00  0.00000000E+00  0.00000000E+00
  0.00000000E+00  0.00000000E+00  0.00000000E+00  0.00000000E+00  0.00000000E+00
  0.00000000E+00  0.00000000E+00  0.00000000E+00  0.00000000E+00  0.00000000E+00
  0.00000000E+00  0.00000000E+00  0.00000000E+00  0.00000000E+00  0.00000000E+00
  0.00000000E+00  0.00000000E+00  0.00000000E+00  0.00000000E+00  0.00000000E+00
  0.00000000E+00  0.00000000E+00  0.00000000E+00  0.00000000E+00  0.00000000E+00
  0.00000000E+00  0.00000000E+00  0.00000000E+00  0.00000000E+00  0.00000000E+00
  0.00000000E+00  0.00000000E+00  0.00000000E+00  0.00000000E+00  0.00000000E+00
  0.00000000E+00  0.00000000E+00  0.00000000E+00  0.00000000E+00  0.00000000E+00
  0.00000000E+00  0.00000000E+00  0.00000000E+00  0.00000000E+00  0.00000000E+00
  0.00000000E+00  0.00000000E+00  0.00000000E+00  0.00000000E+00  0.00000000E+00
  0.00000000E+00  0.00000000E+00  0.00000000E+00  0.00000000E+00  0.00000000E+00
  0.00000000E+00  0.00000000E+00  0.00000000E+00  0.00000000E+00  0.00000000E+00
  0.00000000E+00  0.00000000E+00  0.00000000E+00  0.00000000E+00  0.00000000E+00
  0.00000000E+00  0.00000000E+00  0.00000000E+00  0.00000000E+00  0.00000000E+00
  0.00000000E+00  0.00000000E+00  0.00000000E+00  0.00000000E+00  0.00000000E+00
  0.00000000E+00  0.00000000E+00  0.00000000E+00  0.00000000E+00  0.00000000E+00
  0.00000000E+00  0.00000000E+00  0.00000000E+00  0.00000000E+00  0.00000000E+00
  0.00000000E+00  0.00000000E+00  0.00000000E+00  0.00000000E+00  0.00000000E+00
  0.00000000E+00  0.00000000E+00  0.00000000E+00  0.00000000E+00  0.00000000E+00
  0.00000000E+00  0.00000000E+00  0.00000000E+00  0.00000000E+00  0.00000000E+00
  0.00000000E+00  0.00000000E+00  0.00000000E+00  0.00000000E+00  0.00000000E+00
  0.00000000E+00  0.00000000E+00  0.00000000E+00  0.00000000E+00  0.00000000E+00
  0.00000000E+00  0.00000000E+00  0.00000000E+00  0.00000000E+00  0.00000000E+00
  0.00000000E+00  0.00000000E+00  0.00000000E+00  0.00000000E+00  0.00000000E+00
  0.00000000E+00  0.00000000E+00  0.00000000E+00  0.00000000E+00  0.00000000E+00
  0.00000000E+00  0.00000000E+00  0.00000000E+00  0.00000000E+00  0.00000000E+00
  0.00000000E+00  0.00000000E+00  0.00000000E+00  0.00000000E+00  0.00000000E+00
  0.00000000E+00  0.00000000E+00  0.00000000E+00  0.00000000E+00  0.00000000E+00
  0.00000000E+00  0.00000000E+00  0.00000000E+00  0.00000000E+00  0.00000000E+00
  0.00000000E+00  0.00000000E+00  0.00000000E+00  0.00000000E+00  0.00000000E+00
  0.00000000E+00  0.00000000E+00  0.00000000E+00  0.00000000E+00  0.00000000E+00
  0.00000000E+00  0.00000000E+00  0.00000000E+00  0.00000000E+00  0.00000000E+00
  0.00000000E+00  0.00000000E+00  0.00000000E+00  0.00000000E+00  0.00000000E+00
  0.00000000E+00  0.00000000E+00  0.00000000E+00  0.00000000E+00  0.00000000E+00
  0.00000000E+00  0.00000000E+00  0.00000000E+00  0.00000000E+00  0.00000000E+00
  0.00000000E+00  0.00000000E+00  0.00000000E+00  0.00000000E+00  0.00000000E+00
  0.00000000E+00  0.00000000E+00  0.00000000E+00  0.00000000E+00  0.00000000E+00
  0.00000000E+00  0.00000000E+00  0.00000000E+00  0.00000000E+00  0.00000000E+00
  0.00000000E+00  0.00000000E+00  0.00000000E+00  0.00000000E+00  0.00000000E+00
  0.00000000E+00  0.00000000E+00  0.00000000E+00  0.00000000E+00  0.00000000E+00
  0.00000000E+00  0.00000000E+00  0.00000000E+00  0.00000000E+00  0.00000000E+00
  0.00000000E+00  0.00000000E+00
MO    3                     OCC NO =   1.00000000 ORB. ENERGY = -49.19771073
  1.06784806E+01  9.58175530E+00  9.13151907E+00  7.93837588E+00  7.28559051E+00
  6.76417019E+00  6.58261102E+00  6.46384646E+00  6.60440215E+00  5.97310680E+00
  5.34391407E+00  3.04028810E+00  9.69548475E-01  1.47697904E+00  4.34808568E+00
  8.32777929E+00  8.73735840E+00  1.90253222E+00 -6.61192725E+00 -5.77523295E+00
 -4.71985513E+00  3.11026022E+00  2.88322142E+00  3.13277614E-01 -2.50751622E-02
  6.30844894E-03 -2.63852721E-03  4.20765816E-04 -4.01720148E-05  7.28124275E-06
  0.00000000E+00  0.00000000E+00  0.00000000E+00  0.00000000E+00  0.00000000E+00
  0.00000000E+00  0.00000000E+00  0.00000000E+00  0.00000000E+00  0.00000000E+00
  0.00000000E+00  0.00000000E+00  0.00000000E+00  0.00000000E+00  0.00000000E+00
  0.00000000E+00  0.00000000E+00  0.00000000E+00  0.00000000E+00  0.00000000E+00
  0.00000000E+00  0.00000000E+00  0.00000000E+00  0.00000000E+00  0.00000000E+00
  0.00000000E+00  0.00000000E+00  0.00000000E+00  0.00000000E+00  0.00000000E+00
  0.00000000E+00  0.00000000E+00  0.00000000E+00  0.00000000E+00  0.00000000E+00
  0.00000000E+00  0.00000000E+00  0.00000000E+00  0.00000000E+00  0.00000000E+00
  0.00000000E+00  0.00000000E+00  0.00000000E+00  0.00000000E+00  0.00000000E+00
  0.00000000E+00  0.00000000E+00  0.00000000E+00  0.00000000E+00  0.00000000E+00
  0.00000000E+00  0.00000000E+00  0.00000000E+00  0.00000000E+00  0.00000000E+00
  0.00000000E+00  0.00000000E+00  0.00000000E+00  0.00000000E+00  0.00000000E+00
  0.00000000E+00  0.00000000E+00  0.00000000E+00  0.00000000E+00  0.00000000E+00
  0.00000000E+00  0.00000000E+00  0.00000000E+00  0.00000000E+00  0.00000000E+00
  0.00000000E+00  0.00000000E+00  0.00000000E+00  0.00000000E+00  0.00000000E+00
  0.00000000E+00  0.00000000E+00  0.00000000E+00  0.00000000E+00  0.00000000E+00
  0.00000000E+00  0.00000000E+00  0.00000000E+00  0.00000000E+00  0.00000000E+00
  0.00000000E+00  0.00000000E+00  0.00000000E+00  0.00000000E+00  0.00000000E+00
  0.00000000E+00  0.00000000E+00  0.00000000E+00  0.00000000E+00  0.00000000E+00
  0.00000000E+00  0.00000000E+00  0.00000000E+00  0.00000000E+00  0.00000000E+00
  0.00000000E+00  0.00000000E+00  0.00000000E+00  0.00000000E+00  0.00000000E+00
  0.00000000E+00  0.00000000E+00  0.00000000E+00  0.00000000E+00  0.00000000E+00
  0.00000000E+00  0.00000000E+00  0.00000000E+00  0.00000000E+00  0.00000000E+00
  0.00000000E+00  0.00000000E+00  0.00000000E+00  0.00000000E+00  0.00000000E+00
  0.00000000E+00  0.00000000E+00  0.00000000E+00  0.00000000E+00  0.00000000E+00
  0.00000000E+00  0.00000000E+00  0.00000000E+00  0.00000000E+00  0.00000000E+00
  0.00000000E+00  0.00000000E+00  0.00000000E+00  0.00000000E+00  0.00000000E+00
  0.00000000E+00  0.00000000E+00  0.00000000E+00  0.00000000E+00  0.00000000E+00
  0.00000000E+00  0.00000000E+00  0.00000000E+00  0.00000000E+00  0.00000000E+00
  0.00000000E+00  0.00000000E+00  0.00000000E+00  0.00000000E+00  0.00000000E+00
  0.00000000E+00  0.00000000E+00  0.00000000E+00  0.00000000E+00  0.00000000E+00
  0.00000000E+00  0.00000000E+00  0.00000000E+00  0.00000000E+00  0.00000000E+00
  0.00000000E+00  0.00000000E+00  0.00000000E+00  0.00000000E+00  0.00000000E+00
  0.00000000E+00  0.00000000E+00  0.00000000E+00  0.00000000E+00  0.00000000E+00
  0.00000000E+00  0.00000000E+00  0.00000000E+00  0.00000000E+00  0.00000000E+00
  0.00000000E+00  0.00000000E+00  0.00000000E+00  0.00000000E+00  0.00000000E+00
  0.00000000E+00  0.00000000E+00  0.00000000E+00  0.00000000E+00  0.00000000E+00
  0.00000000E+00  0.00000000E+00  0.00000000E+00  0.00000000E+00  0.00000000E+00
  0.00000000E+00  0.00000000E+00  0.00000000E+00  0.00000000E+00  0.00000000E+00
  0.00000000E+00  0.00000000E+00  0.00000000E+00  0.00000000E+00  0.00000000E+00
  0.00000000E+00  0.00000000E+00  0.00000000E+00  0.00000000E+00  0.00000000E+00
  0.00000000E+00  0.00000000E+00  0.00000000E+00  0.00000000E+00  0.00000000E+00
  0.00000000E+00  0.00000000E+00  0.00000000E+00  0.00000000E+00  0.00000000E+00
  0.00000000E+00  0.00000000E+00  0.00000000E+00  0.00000000E+00  0.00000000E+00
  0.00000000E+00  0.00000000E+00  0.00000000E+00  0.00000000E+00  0.00000000E+00
  0.00000000E+00  0.00000000E+00  0.00000000E+00  0.00000000E+00  0.00000000E+00
  0.00000000E+00  0.00000000E+00  0.00000000E+00  0.00000000E+00  0.00000000E+00
  0.00000000E+00  0.00000000E+00  0.00000000E+00  0.00000000E+00  0.00000000E+00
  0.00000000E+00  0.00000000E+00  0.00000000E+00  0.00000000E+00  0.00000000E+00
  0.00000000E+00  0.00000000E+00  0.00000000E+00  0.00000000E+00  0.00000000E+00
  0.00000000E+00  0.00000000E+00  0.00000000E+00  0.00000000E+00  0.00000000E+00
  0.00000000E+00  0.00000000E+00  0.00000000E+00  0.00000000E+00  0.00000000E+00
  0.00000000E+00  0.00000000E+00  0.00000000E+00  0.00000000E+00  0.00000000E+00
  0.00000000E+00  0.00000000E+00  0.00000000E+00  0.00000000E+00  0.00000000E+00
  0.00000000E+00  0.00000000E+00  0.00000000E+00  0.00000000E+00  0.00000000E+00
  0.00000000E+00  0.00000000E+00  0.00000000E+00  0.00000000E+00  0.00000000E+00
  0.00000000E+00  0.00000000E+00  0.00000000E+00  0.00000000E+00  0.00000000E+00
  0.00000000E+00  0.00000000E+00  0.00000000E+00  0.00000000E+00  0.00000000E+00
  0.00000000E+00  0.00000000E+00  0.00000000E+00  0.00000000E+00  0.00000000E+00
  0.00000000E+00  0.00000000E+00  0.00000000E+00  0.00000000E+00  0.00000000E+00
  0.00000000E+00  0.00000000E+00  0.00000000E+00  0.00000000E+00  0.00000000E+00
  0.00000000E+00  0.00000000E+00  0.00000000E+00  0.00000000E+00  0.00000000E+00
  0.00000000E+00  0.00000000E+00  0.00000000E+00  0.00000000E+00  0.00000000E+00
  0.00000000E+00  0.00000000E+00  0.00000000E+00  0.00000000E+00  0.00000000E+00
  0.00000000E+00  0.00000000E+00  0.00000000E+00  0.00000000E+00  0.00000000E+00
  0.00000000E+00  0.00000000E+00  0.00000000E+00  0.00000000E+00  0.00000000E+00
  0.00000000E+00  0.00000000E+00  0.00000000E+00  0.00000000E+00  0.00000000E+00
  0.00000000E+00  0.00000000E+00  0.00000000E+00  0.00000000E+00  0.00000000E+00
  0.00000000E+00  0.00000000E+00  0.00000000E+00  0.00000000E+00  0.00000000E+00
  0.00000000E+00  0.00000000E+00  0.00000000E+00  0.00000000E+00  0.00000000E+00
  0.00000000E+00  0.00000000E+00  0.00000000E+00  0.00000000E+00  0.00000000E+00
  0.00000000E+00  0.00000000E+00  0.00000000E+00  0.00000000E+00  0.00000000E+00
  0.00000000E+00  0.00000000E+00
MO    4                     OCC NO =   1.00000000 ORB. ENERGY = -10.13482913
 -5.08969697E+00 -4.56696349E+00 -4.35236686E+00 -3.78367759E+00 -3.47253972E+00
 -3.22401453E+00 -3.13747776E+00 -3.08087087E+00 -3.14786409E+00 -2.84696904E+00
 -2.54707616E+00 -1.44909616E+00 -4.67423474E-01 -7.12057926E-01 -2.09623074E+00
 -4.01485808E+00 -4.27121343E+00 -8.92290100E-01  3.45630756E+00  3.37170645E+00
  2.73184004E+00 -2.70925214E+00 -3.63142493E+00  7.29520560E-01  1.29088215E+00
  1.14311200E-01 -1.55931616E-02  1.75737287E-03 -1.31669717E-04  2.29323924E-05
  0.00000000E+00  0.00000000E+00  0.00000000E+00  0.00000000E+00  0.00000000E+00
  0.00000000E+00  0.00000000E+00  0.00000000E+00  0.00000000E+00  0.00000000E+00
  0.00000000E+00  0.00000000E+00  0.00000000E+00  0.00000000E+00  0.00000000E+00
  0.00000000E+00  0.00000000E+00  0.00000000E+00  0.00000000E+00  0.00000000E+00
  0.00000000E+00  0.00000000E+00  0.00000000E+00  0.00000000E+00  0.00000000E+00