atomref-proatoms Li_q0_mult2_nist x2c-QZVPall
GAUSSIAN              3 MOL ORBITALS     58 PRIMITIVES        1 NUCLEI
  Li   1    (CENTRE  1)   0.00000000  0.00000000  0.00000000  CHARGE = 3.0
CENTRE ASSIGNMENTS    1  1  1  1  1  1  1  1  1  1  1  1  1  1  1  1  1  1  1  1
CENTRE ASSIGNMENTS    1  1  1  1  1  1  1  1  1  1  1  1  1  1  1  1  1  1  1  1
CENTRE ASSIGNMENTS    1  1  1  1  1  1  1  1  1  1  1  1  1  1  1  1  1  1
TYPE ASSIGNMENTS      1  1  1  1  1  1  1  1  1  1  1  1  1  1  1  2  3  4  2  3
TYPE ASSIGNMENTS      4  2  3  4  2  3  4  2  3  4  5  8  9  6 10  7  5  8  9  6
TYPE ASSIGNMENTS     10  7  5  8  9  6 10  7 11 14 15 17 20 18 12 16 19 13
EXPONENTS  1.4853977E+04 2.2252236E+03 5.0488583E+02 1.4245808E+02 4.6309873E+01
EXPONENTS  1.6658413E+01 6.4332669E+00 2.6030838E+00 1.0895257E+00 4.4236596E+00
EXPONENTS  1.2356395E+00 4.6067601E-01 9.6617167E-02 4.5915452E-02 2.1140049E-02
EXPONENTS  3.2605109E+00 3.2605109E+00 3.2605109E+00 6.5003043E-01 6.5003043E-01
EXPONENTS  6.5003043E-01 1.6941671E-01 1.6941671E-01 1.6941671E-01 5.5732344E-02
EXPONENTS  5.5732344E-02 5.5732344E-02 2.0489959E-02 2.0489959E-02 2.0489959E-02
EXPONENTS  9.2000000E-01 9.2000000E-01 9.2000000E-01 9.2000000E-01 9.2000000E-01
EXPONENTS  9.2000000E-01 2.3000000E-01 2.3000000E-01 2.3000000E-01 2.3000000E-01
EXPONENTS  2.3000000E-01 2.3000000E-01 7.5700000E-02 7.5700000E-02 7.5700000E-02
EXPONENTS  7.5700000E-02 7.5700000E-02 7.5700000E-02 1.3500000E-01 1.3500000E-01
EXPONENTS  1.3500000E-01 1.3500000E-01 1.3500000E-01 1.3500000E-01 1.3500000E-01
EXPONENTS  1.3500000E-01 1.3500000E-01 1.3500000E-01
MO    1                     OCC NO =   1.00000000 ORB. ENERGY =  -2.05297607
  5.47672715E-02  8.23758443E-02  1.36406753E-01  2.19014662E-01  3.31187315E-01
  4.54984746E-01  5.30279666E-01  4.79827387E-01  2.80883930E-01 -4.88421666E-03
 -1.34929271E-02  7.29290484E-02  1.75573695E-03 -5.48311661E-04  8.62943661E-05
  0.00000000E+00  0.00000000E+00  0.00000000E+00  0.00000000E+00  0.00000000E+00
  0.00000000E+00  0.00000000E+00  0.00000000E+00  0.00000000E+00  0.00000000E+00
  0.00000000E+00  0.00000000E+00  0.00000000E+00  0.00000000E+00  0.00000000E+00
  0.00000000E+00  0.00000000E+00  0.00000000E+00  0.00000000E+00  0.00000000E+00
  0.00000000E+00  0.00000000E+00  0.00000000E+00  0.00000000E+00  0.00000000E+00
  0.00000000E+00  0.00000000E+00  0.00000000E+00  0.00000000E+00  0.00000000E+00
  0.00000000E+00  0.00000000E+00  0.00000000E+00  0.00000000E+00  0.00000000E+00
  0.00000000E+00  0.00000000E+00  0.00000000E+00  0.00000000E+00  0.00000000E+00
  0.00000000E+00  0.00000000E+00  0.00000000E+00
MO    2                     OCC NO =   1.00000000 ORB. ENERGY =  -0.14072242
 -9.96823094E-03 -1.49932874E-02 -2.48274924E-02 -3.98630180E-02 -6.02796442E-02
 -8.28121048E-02 -9.65165879E-02 -8.73337318E-02 -5.11238884E-02 -7.87839125E-03
 -2.17645051E-02 -5.10674199E-02  4.14252941E-02  3.96445207E-02  8.61413194E-03
  0.00000000E+00  0.00000000E+00  0.00000000E+00  0.00000000E+00  0.00000000E+00
  0.00000000E+00  0.00000000E+00  0.00000000E+00  0.00000000E+00  0.00000000E+00
  0.00000000E+00  0.00000000E+00  0.00000000E+00  0.00000000E+00  0.00000000E+00
  0.00000000E+00  0.00000000E+00  0.00000000E+00  0.00000000E+00  0.00000000E+00
  0.00000000E+00  0.00000000E+00  0.00000000E+00  0.00000000E+00  0.00000000E+00
  0.00000000E+00  0.00000000E+00  0.00000000E+00  0.00000000E+00  0.00000000E+00
  0.00000000E+00  0.00000000E+00  0.00000000E+00  0.00000000E+00  0.00000000E+00
  0.00000000E+00  0.00000000E+00  0.00000000E+00  0.00000000E+00  0.00000000E+00
  0.00000000E+00  0.00000000E+00  0.00000000E+00
MO    4                     OCC NO =   1.00000000 ORB. ENERGY =  -2.04253445
  5.46438965E-02  8.21902751E-02  1.36099468E-01  2.18521284E-01  3.30441245E-01
  4.53959796E-01  5.29085098E-01  4.78746473E-01  2.80251179E-01 -4.60993986E-03
 -1.27352217E-02  7.34912637E-02  1.75635801E-03 -5.95705780E-04  9.79509528E-05
  0.00000000E+00  0.00000000E+00  0.00000000E+00  0.00000000E+00  0.00000000E+00
  0.00000000E+00  0.00000000E+00  0.00000000E+00  0.00000000E+00  0.00000000E+00
  0.00000000E+00  0.00000000E+00  0.00000000E+00  0.00000000E+00  0.00000000E+00
  0.00000000E+00  0.00000000E+00  0.00000000E+00  0.00000000E+00  0.00000000E+00
  0.00000000E+00  0.00000000E+00  0.00000000E+00  0.00000000E+00  0.00000000E+00
  0.00000000E+00  0.00000000E+00  0.00000000E+00  0.00000000E+00  0.00000000E+00
  0.00000000E+00  0.00000000E+00  0.00000000E+00  0.00000000E+00  0.00000000E+00
  0.00000000E+00  0.00000000E+00  0.00000000E+00  0.00000000E+00  0.00000000E+00
  0.00000000E+00  0.00000000E+00  0.00000000E+00
END DATA
SCF      ENERGY =      -7.467804872048   VIRIAL(-V/T)  =   2.00000000

$MOSPIN
 1 1 2
$END
