atomref-proatoms Mg_q0_mult1_nist x2c-QZVPall
GAUSSIAN             12 MOL ORBITALS     93 PRIMITIVES        1 NUCLEI
  Mg   1    (CENTRE  1)   0.00000000  0.00000000  0.00000000  CHARGE = 12.0
CENTRE ASSIGNMENTS    1  1  1  1  1  1  1  1  1  1  1  1  1  1  1  1  1  1  1  1
CENTRE ASSIGNMENTS    1  1  1  1  1  1  1  1  1  1  1  1  1  1  1  1  1  1  1  1
CENTRE ASSIGNMENTS    1  1  1  1  1  1  1  1  1  1  1  1  1  1  1  1  1  1  1  1
CENTRE ASSIGNMENTS    1  1  1  1  1  1  1  1  1  1  1  1  1  1  1  1  1  1  1  1
CENTRE ASSIGNMENTS    1  1  1  1  1  1  1  1  1  1  1  1  1
TYPE ASSIGNMENTS      1  1  1  1  1  1  1  1  1  1  1  1  1  1  1  1  1  1  1  1
TYPE ASSIGNMENTS      2  3  4  2  3  4  2  3  4  2  3  4  2  3  4  2  3  4  2  3
TYPE ASSIGNMENTS      4  2  3  4  2  3  4  2  3  4  2  3  4  2  3  4  2  3  4  5
TYPE ASSIGNMENTS      8  9  6 10  7  5  8  9  6 10  7  5  8  9  6 10  7  5  8  9
TYPE ASSIGNMENTS      6 10  7 11 14 15 17 20 18 12 16 19 13
EXPONENTS  6.1713950E+05 9.0647214E+04 2.0604892E+04 5.8219017E+03 1.8976508E+03
EXPONENTS  6.8403335E+02 2.6665899E+02 1.1026065E+02 4.7837421E+01 2.1606738E+01
EXPONENTS  1.7419763E+02 5.3484317E+01 2.0487449E+01 9.8373416E+00 3.5411280E+00
EXPONENTS  1.5449862E+00 6.6584393E-01 1.4371101E-01 6.6561482E-02 2.9786090E-02
EXPONENTS  8.9644416E+02 8.9644416E+02 8.9644416E+02 2.1180013E+02 2.1180013E+02
EXPONENTS  2.1180013E+02 6.8487018E+01 6.8487018E+01 6.8487018E+01 2.5740502E+01
EXPONENTS  2.5740502E+01 2.5740502E+01 1.0612978E+01 1.0612978E+01 1.0612978E+01
EXPONENTS  4.5976230E+00 4.5976230E+00 4.5976230E+00 2.0119782E+00 2.0119782E+00
EXPONENTS  2.0119782E+00 8.7717448E-01 8.7717448E-01 8.7717448E-01 1.9000000E+00
EXPONENTS  1.9000000E+00 1.9000000E+00 3.5785362E-01 3.5785362E-01 3.5785362E-01
EXPONENTS  1.9006893E-01 1.9006893E-01 1.9006893E-01 7.4643687E-02 7.4643687E-02
EXPONENTS  7.4643687E-02 2.9233258E-02 2.9233258E-02 2.9233258E-02 3.8100000E+00
EXPONENTS  3.8100000E+00 3.8100000E+00 3.8100000E+00 3.8100000E+00 3.8100000E+00
EXPONENTS  6.5000000E-01 6.5000000E-01 6.5000000E-01 6.5000000E-01 6.5000000E-01
EXPONENTS  6.5000000E-01 2.0000000E-01 2.0000000E-01 2.0000000E-01 2.0000000E-01
EXPONENTS  2.0000000E-01 2.0000000E-01 5.2000000E-02 5.2000000E-02 5.2000000E-02
EXPONENTS  5.2000000E-02 5.2000000E-02 5.2000000E-02 1.6000000E-01 1.6000000E-01
EXPONENTS  1.6000000E-01 1.6000000E-01 1.6000000E-01 1.6000000E-01 1.6000000E-01
EXPONENTS  1.6000000E-01 1.6000000E-01 1.6000000E-01
MO    1                     OCC NO =   1.00000000 ORB. ENERGY = -46.99039468
  9.87708520E-01  8.78349880E-01  1.05554079E+00  1.40852773E+00  1.98772875E+00
  2.81239860E+00  3.75776138E+00  4.46191708E+00  4.17400351E+00  2.53138465E+00
 -1.28286431E-02 -4.35443284E-02 -6.73336232E-02  6.88371221E-01  2.29531897E-02
 -1.01812488E-03  1.37247145E-04 -4.86546785E-06  1.67670350E-06 -2.56528972E-07
  0.00000000E+00  0.00000000E+00  0.00000000E+00  0.00000000E+00  0.00000000E+00
  0.00000000E+00  0.00000000E+00  0.00000000E+00  0.00000000E+00  0.00000000E+00
  0.00000000E+00  0.00000000E+00  0.00000000E+00  0.00000000E+00  0.00000000E+00
  0.00000000E+00  0.00000000E+00  0.00000000E+00  0.00000000E+00  0.00000000E+00
  0.00000000E+00  0.00000000E+00  0.00000000E+00  0.00000000E+00  0.00000000E+00
  0.00000000E+00  0.00000000E+00  0.00000000E+00  0.00000000E+00  0.00000000E+00
  0.00000000E+00  0.00000000E+00  0.00000000E+00  0.00000000E+00  0.00000000E+00
  0.00000000E+00  0.00000000E+00  0.00000000E+00  0.00000000E+00  0.00000000E+00
  0.00000000E+00  0.00000000E+00  0.00000000E+00  0.00000000E+00  0.00000000E+00
  0.00000000E+00  0.00000000E+00  0.00000000E+00  0.00000000E+00  0.00000000E+00
  0.00000000E+00  0.00000000E+00  0.00000000E+00  0.00000000E+00  0.00000000E+00
  0.00000000E+00  0.00000000E+00  0.00000000E+00  0.00000000E+00  0.00000000E+00
  0.00000000E+00  0.00000000E+00  0.00000000E+00  0.00000000E+00  0.00000000E+00
  0.00000000E+00  0.00000000E+00  0.00000000E+00  0.00000000E+00  0.00000000E+00
  0.00000000E+00  0.00000000E+00  0.00000000E+00
MO    2                     OCC NO =   1.00000000 ORB. ENERGY =  -3.15437674
 -2.55649508E-01 -2.27344110E-01 -2.73206596E-01 -3.64570533E-01 -5.14485667E-01
 -7.27935727E-01 -9.72624847E-01 -1.15488212E+00 -1.08036118E+00 -6.55200625E-01
 -1.02035472E-01 -3.46339520E-01 -5.35552977E-01 -3.03457690E-01  5.44008076E-01
  5.35234621E-01  1.58345316E-01  3.58242850E-03 -1.08606202E-03  1.70573673E-04
  0.00000000E+00  0.00000000E+00  0.00000000E+00  0.00000000E+00  0.00000000E+00
  0.00000000E+00  0.00000000E+00  0.00000000E+00  0.00000000E+00  0.00000000E+00
  0.00000000E+00  0.00000000E+00  0.00000000E+00  0.00000000E+00  0.00000000E+00
  0.00000000E+00  0.00000000E+00  0.00000000E+00  0.00000000E+00  0.00000000E+00
  0.00000000E+00  0.00000000E+00  0.00000000E+00  0.00000000E+00  0.00000000E+00
  0.00000000E+00  0.00000000E+00  0.00000000E+00  0.00000000E+00  0.00000000E+00
  0.00000000E+00  0.00000000E+00  0.00000000E+00  0.00000000E+00  0.00000000E+00
  0.00000000E+00  0.00000000E+00  0.00000000E+00  0.00000000E+00  0.00000000E+00
  0.00000000E+00  0.00000000E+00  0.00000000E+00  0.00000000E+00  0.00000000E+00
  0.00000000E+00  0.00000000E+00  0.00000000E+00  0.00000000E+00  0.00000000E+00
  0.00000000E+00  0.00000000E+00  0.00000000E+00  0.00000000E+00  0.00000000E+00
  0.00000000E+00  0.00000000E+00  0.00000000E+00  0.00000000E+00  0.00000000E+00
  0.00000000E+00  0.00000000E+00  0.00000000E+00  0.00000000E+00  0.00000000E+00
  0.00000000E+00  0.00000000E+00  0.00000000E+00  0.00000000E+00  0.00000000E+00
  0.00000000E+00  0.00000000E+00  0.00000000E+00
MO    3                     OCC NO =   1.00000000 ORB. ENERGY =  -0.19962441
  5.46315041E-02  4.85827287E-02  5.83833991E-02  7.79075880E-02  1.09943986E-01
  1.55557599E-01  2.07846902E-01  2.46794713E-01  2.30869822E-01  1.40014334E-01
  2.33785381E-02  7.93538909E-02  1.22706795E-01  7.48672968E-02 -1.48851264E-01
 -1.68296860E-01 -9.96356203E-02  5.88950608E-02  5.60682161E-02  9.44632210E-03
  0.00000000E+00  0.00000000E+00  0.00000000E+00  0.00000000E+00  0.00000000E+00
  0.00000000E+00  0.00000000E+00  0.00000000E+00  0.00000000E+00  0.00000000E+00
  0.00000000E+00  0.00000000E+00  0.00000000E+00  0.00000000E+00  0.00000000E+00
  0.00000000E+00  0.00000000E+00  0.00000000E+00  0.00000000E+00  0.00000000E+00
  0.00000000E+00  0.00000000E+00  0.00000000E+00  0.00000000E+00  0.00000000E+00
  0.00000000E+00  0.00000000E+00  0.00000000E+00  0.00000000E+00  0.00000000E+00
  0.00000000E+00  0.00000000E+00  0.00000000E+00  0.00000000E+00  0.00000000E+00
  0.00000000E+00  0.00000000E+00  0.00000000E+00  0.00000000E+00  0.00000000E+00
  0.00000000E+00  0.00000000E+00  0.00000000E+00  0.00000000E+00  0.00000000E+00
  0.00000000E+00  0.00000000E+00  0.00000000E+00  0.00000000E+00  0.00000000E+00
  0.00000000E+00  0.00000000E+00  0.00000000E+00  0.00000000E+00  0.00000000E+00
  0.00000000E+00  0.00000000E+00  0.00000000E+00  0.00000000E+00  0.00000000E+00
  0.00000000E+00  0.00000000E+00  0.00000000E+00  0.00000000E+00  0.00000000E+00
  0.00000000E+00  0.00000000E+00  0.00000000E+00  0.00000000E+00  0.00000000E+00
  0.00000000E+00  0.00000000E+00  0.00000000E+00
MO    4                     OCC NO =   1.00000000 ORB. ENERGY =  -1.86329525
  0.00000000E+00  0.00000000E+00  0.00000000E+00  0.00000000E+00  0.00000000E+00
  0.00000000E+00  0.00000000E+00  0.00000000E+00  0.00000000E+00  0.00000000E+00
  0.00000000E+00  0.00000000E+00  0.00000000E+00  0.00000000E+00  0.00000000E+00
  0.00000000E+00  0.00000000E+00  0.00000000E+00  0.00000000E+00  0.00000000E+00
  2.78408647E+00  0.00000000E+00  0.00000000E+00  3.57616866E+00  0.00000000E+00
  0.00000000E+00  4.45081208E+00  0.00000000E+00  0.00000000E+00  4.82508305E+00
  0.00000000E+00  0.00000000E+00  4.30453502E+00  0.00000000E+00  0.00000000E+00
  2.83085310E+00  0.00000000E+00  0.00000000E+00  1.28033967E+00  0.00000000E+00
  0.00000000E+00  3.36570392E-01  0.00000000E+00  0.00000000E+00 -4.46961396E-02
  0.00000000E+00  0.00000000E+00  2.96081268E-02  0.00000000E+00  0.00000000E+00
  2.82139388E-04  0.00000000E+00  0.00000000E+00  4.55069153E-05  0.00000000E+00
  0.00000000E+00 -1.56958823E-06  0.00000000E+00  0.00000000E+00  0.00000000E+00
  0.00000000E+00  0.00000000E+00  0.00000000E+00  0.00000000E+00  0.00000000E+00
  0.00000000E+00  0.00000000E+00  0.00000000E+00  0.00000000E+00  0.00000000E+00
  0.00000000E+00  0.00000000E+00  0.00000000E+00  0.00000000E+00  0.00000000E+00
  0.00000000E+00  0.00000000E+00  0.00000000E+00  0.00000000E+00  0.00000000E+00
  0.00000000E+00  0.00000000E+00  0.00000000E+00  0.00000000E+00  0.00000000E+00
  0.00000000E+00  0.00000000E+00  0.00000000E+00  0.00000000E+00  0.00000000E+00
  0.00000000E+00  0.00000000E+00  0.00000000E+00
MO    5                     OCC NO =   1.00000000 ORB. ENERGY =  -1.86329525
  0.00000000E+00  0.00000000E+00  0.00000000E+00  0.00000000E+00  0.00000000E+00
  0.00000000E+00  0.00000000E+00  0.00000000E+00  0.00000000E+00  0.00000000E+00
  0.00000000E+00  0.00000000E+00  0.00000000E+00  0.00000000E+00  0.00000000E+00
  0.00000000E+00  0.00000000E+00  0.00000000E+00  0.00000000E+00  0.00000000E+00
  0.00000000E+00  2.78408647E+00  0.00000000E+00  0.00000000E+00  3.57616866E+00
  0.00000000E+00  0.00000000E+00  4.45081208E+00  0.00000000E+00  0.00000000E+00
  4.82508305E+00  0.00000000E+00  0.00000000E+00  4.30453502E+00  0.00000000E+00
  0.00000000E+00  2.83085310E+00  0.00000000E+00  0.00000000E+00  1.28033967E+00
  0.00000000E+00  0.00000000E+00  3.36570392E-01  0.00000000E+00  0.00000000E+00
 -4.46961396E-02  0.00000000E+00  0.00000000E+00  2.96081268E-02  0.00000000E+00
  0.00000000E+00  2.82139388E-04  0.00000000E+00  0.00000000E+00  4.55069153E-05
  0.00000000E+00  0.00000000E+00 -1.56958823E-06  0.00000000E+00  0.00000000E+00
  0.00000000E+00  0.00000000E+00  0.00000000E+00  0.00000000E+00  0.00000000E+00
  0.00000000E+00  0.00000000E+00  0.00000000E+00  0.00000000E+00  0.00000000E+00
  0.00000000E+00  0.00000000E+00  0.00000000E+00  0.00000000E+00  0.00000000E+00
  0.00000000E+00  0.00000000E+00  0.00000000E+00  0.00000000E+00  0.00000000E+00
  0.00000000E+00  0.00000000E+00  0.00000000E+00  0.00000000E+00  0.00000000E+00
  0.00000000E+00  0.00000000E+00  0.00000000E+00  0.00000000E+00  0.00000000E+00
  0.00000000E+00  0.00000000E+00  0.00000000E+00
MO    6                     OCC NO =   1.00000000 ORB. ENERGY =  -1.86329525
  0.00000000E+00  0.00000000E+00  0.00000000E+00  0.00000000E+00  0.00000000E+00
  0.00000000E+00  0.00000000E+00  0.00000000E+00  0.00000000E+00  0.00000000E+00
  0.00000000E+00  0.00000000E+00  0.00000000E+00  0.00000000E+00  0.00000000E+00
  0.00000000E+00  0.00000000E+00  0.00000000E+00  0.00000000E+00  0.00000000E+00
  0.00000000E+00  0.00000000E+00  2.78408647E+00  0.00000000E+00  0.00000000E+00
  3.57616866E+00  0.00000000E+00  0.00000000E+00  4.45081208E+00  0.00000000E+00
  0.00000000E+00  4.82508305E+00  0.00000000E+00  0.00000000E+00  4.30453502E+00
  0.00000000E+00  0.00000000E+00  2.83085310E+00  0.00000000E+00  0.00000000E+00
  1.28033967E+00  0.00000000E+00  0.00000000E+00  3.36570392E-01  0.00000000E+00
  0.00000000E+00 -4.46961396E-02  0.00000000E+00  0.00000000E+00  2.96081268E-02
  0.00000000E+00  0.00000000E+00  2.82139388E-04  0.00000000E+00  0.00000000E+00
  4.55069153E-05  0.00000000E+00  0.00000000E+00 -1.56958823E-06  0.00000000E+00
  0.00000000E+00  0.00000000E+00  0.00000000E+00  0.00000000E+00  0.00000000E+00
  0.00000000E+00  0.00000000E+00  0.00000000E+00  0.00000000E+00  0.00000000E+00
  0.00000000E+00  0.00000000E+00  0.00000000E+00  0.00000000E+00  0.00000000E+00
  0.00000000E+00  0.00000000E+00  0.00000000E+00  0.00000000E+00  0.00000000E+00
  0.00000000E+00  0.00000000E+00  0.00000000E+00  0.00000000E+00  0.00000000E+00
  0.00000000E+00  0.00000000E+00  0.00000000E+00  0.00000000E+00  0.00000000E+00
  0.00000000E+00  0.00000000E+00  0.00000000E+00
MO    8                     OCC NO =   1.00000000 ORB. ENERGY = -46.99039468
  9.87708520E-01  8.78349880E-01  1.05554079E+00  1.40852773E+00  1.98772875E+00
  2.81239860E+00  3.75776138E+00  4.46191708E+00  4.17400351E+00  2.53138465E+00
 -1.28286431E-02 -4.35443284E-02 -6.73336232E-02  6.88371221E-01  2.29531897E-02
 -1.01812488E-03  1.37247145E-04 -4.86546785E-06  1.67670350E-06 -2.56528972E-07
  0.00000000E+00  0.00000000E+00  0.00000000E+00  0.00000000E+00  0.00000000E+00
  0.00000000E+00  0.00000000E+00  0.00000000E+00  0.00000000E+00  0.00000000E+00
  0.00000000E+00  0.00000000E+00  0.00000000E+00  0.00000000E+00  0.00000000E+00
  0.00000000E+00  0.00000000E+00  0.00000000E+00  0.00000000E+00  0.00000000E+00
  0.00000000E+00  0.00000000E+00  0.00000000E+00  0.00000000E+00  0.00000000E+00
  0.00000000E+00  0.00000000E+00  0.00000000E+00  0.00000000E+00  0.00000000E+00
  0.00000000E+00  0.00000000E+00  0.00000000E+00  0.00000000E+00  0.00000000E+00
  0.00000000E+00  0.00000000E+00  0.00000000E+00  0.00000000E+00  0.00000000E+00
  0.00000000E+00  0.00000000E+00  0.00000000E+00  0.00000000E+00  0.00000000E+00
  0.00000000E+00  0.00000000E+00  0.00000000E+00  0.00000000E+00  0.00000000E+00
  0.00000000E+00  0.00000000E+00  0.00000000E+00  0.00000000E+00  0.00000000E+00
  0.00000000E+00  0.00000000E+00  0.00000000E+00  0.00000000E+00  0.00000000E+00
  0.00000000E+00  0.00000000E+00  0.00000000E+00  0.00000000E+00  0.00000000E+00
  0.00000000E+00  0.00000000E+00  0.00000000E+00  0.00000000E+00  0.00000000E+00
  0.00000000E+00  0.00000000E+00  0.00000000E+00
MO    9                     OCC NO =   1.00000000 ORB. ENERGY =  -3.15437674
 -2.55649508E-01 -2.27344110E-01 -2.73206596E-01 -3.64570533E-01 -5.14485667E-01
 -7.27935727E-01 -9.72624847E-01 -1.15488212E+00 -1.08036118E+00 -6.55200625E-01
 -1.02035472E-01 -3.46339520E-01 -5.35552977E-01 -3.03457690E-01  5.44008076E-01
  5.35234621E-01  1.58345316E-01  3.58242850E-03 -1.08606202E-03  1.70573673E-04
  0.00000000E+00  0.00000000E+00  0.00000000E+00  0.00000000E+00  0.00000000E+00
  0.00000000E+00  0.00000000E+00  0.00000000E+00  0.00000000E+00  0.00000000E+00
  0.00000000E+00  0.00000000E+00  0.00000000E+00  0.00000000E+00  0.00000000E+00
  0.00000000E+00  0.00000000E+00  0.00000000E+00  0.00000000E+00  0.00000000E+00
  0.00000000E+00  0.00000000E+00  0.00000000E+00  0.00000000E+00  0.00000000E+00
  0.00000000E+00  0.00000000E+00  0.00000000E+00  0.00000000E+00  0.00000000E+00
  0.00000000E+00  0.00000000E+00  0.00000000E+00  0.00000000E+00  0.00000000E+00
  0.00000000E+00  0.00000000E+00  0.00000000E+00  0.00000000E+00  0.00000000E+00
  0.00000000E+00  0.00000000E+00  0.00000000E+00  0.00000000E+00  0.00000000E+00
  0.00000000E+00  0.00000000E+00  0.00000000E+00  0.00000000E+00  0.00000000E+00
  0.00000000E+00  0.00000000E+00  0.00000000E+00  0.00000000E+00  0.00000000E+00
  0.00000000E+00  0.00000000E+00  0.00000000E+00  0.00000000E+00  0.00000000E+00
  0.00000000E+00  0.00000000E+00  0.00000000E+00  0.00000000E+00  0.00000000E+00
  0.00000000E+00  0.00000000E+00  0.00000000E+00  0.00000000E+00  0.00000000E+00
  0.00000000E+00  0.00000000E+00  0.00000000E+00
MO   10                     OCC NO =   1.00000000 ORB. ENERGY =  -0.19962441
  5.46315041E-02  4.85827287E-02  5.83833991E-02  7.79075880E-02  1.09943986E-01
  1.55557599E-01  2.07846902E-01  2.46794713E-01  2.30869822E-01  1.40014334E-01
  2.33785381E-02  7.93538909E-02  1.22706795E-01  7.48672968E-02 -1.48851264E-01
 -1.68296860E-01 -9.96356203E-02  5.88950608E-02  5.60682161E-02  9.44632210E-03
  0.00000000E+00  0.00000000E+00  0.00000000E+00  0.00000000E+00  0.00000000E+00
  0.00000000E+00  0.00000000E+00  0.00000000E+00  0.00000000E+00  0.00000000E+00
  0.00000000E+00  0.00000000E+00  0.00000000E+00  0.00000000E+00  0.00000000E+00
  0.00000000E+00  0.00000000E+00  0.00000000E+00  0.00000000E+00  0.00000000E+00
  0.00000000E+00  0.00000000E+00  0.00000000E+00  0.00000000E+00  0.00000000E+00
  0.00000000E+00  0.00000000E+00  0.00000000E+00  0.00000000E+00  0.00000000E+00
  0.00000000E+00  0.00000000E+00  0.00000000E+00  0.00000000E+00  0.00000000E+00
  0.00000000E+00  0.00000000E+00  0.00000000E+00  0.00000000E+00  0.00000000E+00
  0.00000000E+00  0.00000000E+00  0.00000000E+00  0.00000000E+00  0.00000000E+00
  0.00000000E+00  0.00000000E+00  0.00000000E+00  0.00000000E+00  0.00000000E+00
  0.00000000E+00  0.00000000E+00  0.00000000E+00  0.00000000E+00  0.00000000E+00
  0.00000000E+00  0.00000000E+00  0.00000000E+00  0.00000000E+00  0.00000000E+00
  0.00000000E+00  0.00000000E+00  0.00000000E+00  0.00000000E+00  0.00000000E+00
  0.00000000E+00  0.00000000E+00  0.00000000E+00  0.00000000E+00  0.00000000E+00
  0.00000000E+00  0.00000000E+00  0.00000000E+00
MO   11                    OCC NO =   1.00000000 ORB. ENERGY =  -1.86329525
  0.00000000E+00  0.00000000E+00  0.00000000E+00  0.00000000E+00  0.00000000E+00
  0.00000000E+00  0.00000000E+00  0.00000000E+00  0.00000000E+00  0.00000000E+00
  0.00000000E+00  0.00000000E+00  0.00000000E+00  0.00000000E+00  0.00000000E+00
  0.00000000E+00  0.00000000E+00  0.00000000E+00  0.00000000E+00  0.00000000E+00
  2.78408647E+00  0.00000000E+00  0.00000000E+00  3.57616866E+00  0.00000000E+00
  0.00000000E+00  4.45081208E+00  0.00000000E+00  0.00000000E+00  4.82508305E+00
  0.00000000E+00  0.00000000E+00  4.30453502E+00  0.00000000E+00  0.00000000E+00
  2.83085310E+00  0.00000000E+00  0.00000000E+00  1.28033967E+00  0.00000000E+00
  0.00000000E+00  3.36570392E-01  0.00000000E+00  0.00000000E+00 -4.46961396E-02
  0.00000000E+00  0.00000000E+00  2.96081268E-02  0.00000000E+00  0.00000000E+00
  2.82139388E-04  0.00000000E+00  0.00000000E+00  4.55069153E-05  0.00000000E+00
  0.00000000E+00 -1.56958823E-06  0.00000000E+00  0.00000000E+00  0.00000000E+00
  0.00000000E+00  0.00000000E+00  0.00000000E+00  0.00000000E+00  0.00000000E+00
  0.00000000E+00  0.00000000E+00  0.00000000E+00  0.00000000E+00  0.00000000E+00
  0.00000000E+00  0.00000000E+00  0.00000000E+00  0.00000000E+00  0.00000000E+00
  0.00000000E+00  0.00000000E+00  0.00000000E+00  0.00000000E+00  0.00000000E+00
  0.00000000E+00  0.00000000E+00  0.00000000E+00  0.00000000E+00  0.00000000E+00
  0.00000000E+00  0.00000000E+00  0.00000000E+00  0.00000000E+00  0.00000000E+00
  0.00000000E+00  0.00000000E+00  0.00000000E+00
MO   12                    OCC NO =   1.00000000 ORB. ENERGY =  -1.86329525
  0.00000000E+00  0.00000000E+00  0.00000000E+00  0.00000000E+00  0.00000000E+00
  0.00000000E+00  0.00000000E+00  0.00000000E+00  0.00000000E+00  0.00000000E+00
  0.00000000E+00  0.00000000E+00  0.00000000E+00  0.00000000E+00  0.00000000E+00
  0.00000000E+00  0.00000000E+00  0.00000000E+00  0.00000000E+00  0.00000000E+00
  0.00000000E+00  2.78408647E+00  0.00000000E+00  0.00000000E+00  3.57616866E+00
  0.00000000E+00  0.00000000E+00  4.45081208E+00  0.00000000E+00  0.00000000E+00
  4.82508305E+00  0.00000000E+00  0.00000000E+00  4.30453502E+00  0.00000000E+00
  0.00000000E+00  2.83085310E+00  0.00000000E+00  0.00000000E+00  1.28033967E+00
  0.00000000E+00  0.00000000E+00  3.36570392E-01  0.00000000E+00  0.00000000E+00
 -4.46961396E-02  0.00000000E+00  0.00000000E+00  2.96081268E-02  0.00000000E+00
  0.00000000E+00  2.82139388E-04  0.00000000E+00  0.00000000E+00  4.55069153E-05
  0.00000000E+00  0.00000000E+00 -1.56958823E-06  0.00000000E+00  0.00000000E+00
  0.00000000E+00  0.00000000E+00  0.00000000E+00  0.00000000E+00  0.00000000E+00
  0.00000000E+00  0.00000000E+00  0.00000000E+00  0.00000000E+00  0.00000000E+00
  0.00000000E+00  0.00000000E+00  0.00000000E+00  0.00000000E+00  0.00000000E+00
  0.00000000E+00  0.00000000E+00  0.00000000E+00  0.00000000E+00  0.00000000E+00
  0.00000000E+00  0.00000000E+00  0.00000000E+00  0.00000000E+00  0.00000000E+00
  0.00000000E+00  0.00000000E+00  0.00000000E+00  0.00000000E+00  0.00000000E+00
  0.00000000E+00  0.00000000E+00  0.00000000E+00
MO   13                    OCC NO =   1.00000000 ORB. ENERGY =  -1.86329525
  0.00000000E+00  0.00000000E+00  0.00000000E+00  0.00000000E+00  0.00000000E+00
  0.00000000E+00  0.00000000E+00  0.00000000E+00  0.00000000E+00  0.00000000E+00
  0.00000000E+00  0.00000000E+00  0.00000000E+00  0.00000000E+00  0.00000000E+00
  0.00000000E+00  0.00000000E+00  0.00000000E+00  0.00000000E+00  0.00000000E+00
  0.00000000E+00  0.00000000E+00  2.78408647E+00  0.00000000E+00  0.00000000E+00
  3.57616866E+00  0.00000000E+00  0.00000000E+00  4.45081208E+00  0.00000000E+00
  0.00000000E+00  4.82508305E+00  0.00000000E+00  0.00000000E+00  4.30453502E+00
  0.00000000E+00  0.00000000E+00  2.83085310E+00  0.00000000E+00  0.00000000E+00
  1.28033967E+00  0.00000000E+00  0.00000000E+00  3.36570392E-01  0.00000000E+00
  0.00000000E+00 -4.46961396E-02  0.00000000E+00  0.00000000E+00  2.96081268E-02
  0.00000000E+00  0.00000000E+00  2.82139388E-04  0.00000000E+00  0.00000000E+00
  4.55069153E-05  0.00000000E+00  0.00000000E+00 -1.56958823E-06  0.00000000E+00
  0.00000000E+00  0.00000000E+00  0.00000000E+00  0.00000000E+00  0.00000000E+00
  0.00000000E+00  0.00000000E+00  0.00000000E+00  0.00000000E+00  0.00000000E+00
  0.00000000E+00  0.00000000E+00  0.00000000E+00  0.00000000E+00  0.00000000E+00
  0.00000000E+00  0.00000000E+00  0.00000000E+00  0.00000000E+00  0.00000000E+00
  0.00000000E+00  0.00000000E+00  0.00000000E+00  0.00000000E+00  0.00000000E+00
  0.00000000E+00  0.00000000E+00  0.00000000E+00  0.00000000E+00  0.00000000E+00
  0.00000000E+00  0.00000000E+00  0.00000000E+00
END DATA
SCF      ENERGY =    -200.280841840647   VIRIAL(-V/T)  =   2.00000000

$MOSPIN
 1 1 1 1 1 1 2 2 2 2 2 2
$END
