atomref-proatoms Mn_q0_mult6_nist x2c-QZVPall
GAUSSIAN             25 MOL ORBITALS    199 PRIMITIVES        1 NUCLEI
  Mn   1    (CENTRE  1)   0.00000000  0.00000000  0.00000000  CHARGE = 25.0
CENTRE ASSIGNMENTS    1  1  1  1  1  1  1  1  1  1  1  1  1  1  1  1  1  1  1  1
CENTRE ASSIGNMENTS    1  1  1  1  1  1  1  1  1  1  1  1  1  1  1  1  1  1  1  1
CENTRE ASSIGNMENTS    1  1  1  1  1  1  1  1  1  1  1  1  1  1  1  1  1  1  1  1
CENTRE ASSIGNMENTS    1  1  1  1  1  1  1  1  1  1  1  1  1  1  1  1  1  1  1  1
CENTRE ASSIGNMENTS    1  1  1  1  1  1  1  1  1  1  1  1  1  1  1  1  1  1  1  1
CENTRE ASSIGNMENTS    1  1  1  1  1  1  1  1  1  1  1  1  1  1  1  1  1  1  1  1
CENTRE ASSIGNMENTS    1  1  1  1  1  1  1  1  1  1  1  1  1  1  1  1  1  1  1  1
CENTRE ASSIGNMENTS    1  1  1  1  1  1  1  1  1  1  1  1  1  1  1  1  1  1  1  1
CENTRE ASSIGNMENTS    1  1  1  1  1  1  1  1  1  1  1  1  1  1  1  1  1  1  1  1
CENTRE ASSIGNMENTS    1  1  1  1  1  1  1  1  1  1  1  1  1  1  1  1  1  1  1
TYPE ASSIGNMENTS      1  1  1  1  1  1  1  1  1  1  1  1  1  1  1  1  1  1  1  1
TYPE ASSIGNMENTS      1  1  1  1  2  3  4  2  3  4  2  3  4  2  3  4  2  3  4  2
TYPE ASSIGNMENTS      3  4  2  3  4  2  3  4  2  3  4  2  3  4  2  3  4  2  3  4
TYPE ASSIGNMENTS      2  3  4  2  3  4  2  3  4  2  3  4  2  3  4  2  3  4  2  3
TYPE ASSIGNMENTS      4  2  3  4  5  8  9  6 10  7  5  8  9  6 10  7  5  8  9  6
TYPE ASSIGNMENTS     10  7  5  8  9  6 10  7  5  8  9  6 10  7  5  8  9  6 10  7
TYPE ASSIGNMENTS      5  8  9  6 10  7  5  8  9  6 10  7  5  8  9  6 10  7  5  8
TYPE ASSIGNMENTS      9  6 10  7 11 14 15 17 20 18 12 16 19 13 11 14 15 17 20 18
TYPE ASSIGNMENTS     12 16 19 13 11 14 15 17 20 18 12 16 19 13 11 14 15 17 20 18
TYPE ASSIGNMENTS     12 16 19 13 21 24 25 30 33 31 26 34 35 28 22 27 32 29 23
EXPONENTS  6.9078550E+06 8.7052330E+05 1.7848709E+05 4.7744914E+04 1.5085554E+04
EXPONENTS  5.3340649E+03 2.0583310E+03 8.4306054E+02 3.6364013E+02 1.6509582E+02
EXPONENTS  7.7614918E+01 1.3382425E+03 4.0315816E+02 1.5433186E+02 6.6760056E+01
EXPONENTS  3.4238990E+01 1.4958833E+01 7.0598944E+00 3.0268257E+00 1.4496690E+00
EXPONENTS  6.3683624E-01 1.3816113E-01 6.7060072E-02 3.0046516E-02 2.5689640E+04
EXPONENTS  2.5689640E+04 2.5689640E+04 6.2839652E+03 6.2839652E+03 6.2839652E+03
EXPONENTS  1.7577038E+03 1.7577038E+03 1.7577038E+03 5.6220379E+02 5.6220379E+02
EXPONENTS  5.6220379E+02 2.0562600E+02 2.0562600E+02 2.0562600E+02 8.6393811E+01
EXPONENTS  8.6393811E+01 8.6393811E+01 3.8722020E+01 3.8722020E+01 3.8722020E+01
EXPONENTS  1.8003678E+01 1.8003678E+01 1.8003678E+01 8.5987005E+00 8.5987005E+00
EXPONENTS  8.5987005E+00 4.0161612E+00 4.0161612E+00 4.0161612E+00 1.3800000E+01
EXPONENTS  1.3800000E+01 1.3800000E+01 5.6860498E+01 5.6860498E+01 5.6860498E+01
EXPONENTS  2.0155859E+01 2.0155859E+01 2.0155859E+01 3.9763435E+00 3.9763435E+00
EXPONENTS  3.9763435E+00 1.8333365E+00 1.8333365E+00 1.8333365E+00 8.2779013E-01
EXPONENTS  8.2779013E-01 8.2779013E-01 3.4552346E-01 3.4552346E-01 3.4552346E-01
EXPONENTS  1.5000000E-01 1.5000000E-01 1.5000000E-01 6.3000000E-02 6.3000000E-02
EXPONENTS  6.3000000E-02 2.7000000E-02 2.7000000E-02 2.7000000E-02 2.0414587E+02
EXPONENTS  2.0414587E+02 2.0414587E+02 2.0414587E+02 2.0414587E+02 2.0414587E+02
EXPONENTS  6.0688281E+01 6.0688281E+01 6.0688281E+01 6.0688281E+01 6.0688281E+01
EXPONENTS  6.0688281E+01 2.3124109E+01 2.3124109E+01 2.3124109E+01 2.3124109E+01
EXPONENTS  2.3124109E+01 2.3124109E+01 9.7345938E+00 9.7345938E+00 9.7345938E+00
EXPONENTS  9.7345938E+00 9.7345938E+00 9.7345938E+00 4.3749315E+00 4.3749315E+00
EXPONENTS  4.3749315E+00 4.3749315E+00 4.3749315E+00 4.3749315E+00 2.0020688E+00
EXPONENTS  2.0020688E+00 2.0020688E+00 2.0020688E+00 2.0020688E+00 2.0020688E+00
EXPONENTS  8.9839504E-01 8.9839504E-01 8.9839504E-01 8.9839504E-01 8.9839504E-01
EXPONENTS  8.9839504E-01 3.8566681E-01 3.8566681E-01 3.8566681E-01 3.8566681E-01
EXPONENTS  3.8566681E-01 3.8566681E-01 1.5072067E-01 1.5072067E-01 1.5072067E-01
EXPONENTS  1.5072067E-01 1.5072067E-01 1.5072067E-01 6.0000000E-02 6.0000000E-02
EXPONENTS  6.0000000E-02 6.0000000E-02 6.0000000E-02 6.0000000E-02 4.3530000E+00
EXPONENTS  4.3530000E+00 4.3530000E+00 4.3530000E+00 4.3530000E+00 4.3530000E+00
EXPONENTS  4.3530000E+00 4.3530000E+00 4.3530000E+00 4.3530000E+00 1.3260000E+00
EXPONENTS  1.3260000E+00 1.3260000E+00 1.3260000E+00 1.3260000E+00 1.3260000E+00
EXPONENTS  1.3260000E+00 1.3260000E+00 1.3260000E+00 1.3260000E+00 4.0800000E-01
EXPONENTS  4.0800000E-01 4.0800000E-01 4.0800000E-01 4.0800000E-01 4.0800000E-01
EXPONENTS  4.0800000E-01 4.0800000E-01 4.0800000E-01 4.0800000E-01 1.2550000E-01
EXPONENTS  1.2550000E-01 1.2550000E-01 1.2550000E-01 1.2550000E-01 1.2550000E-01
EXPONENTS  1.2550000E-01 1.2550000E-01 1.2550000E-01 1.2550000E-01 9.2900000E-01
EXPONENTS  9.2900000E-01 9.2900000E-01 9.2900000E-01 9.2900000E-01 9.2900000E-01
EXPONENTS  9.2900000E-01 9.2900000E-01 9.2900000E-01 9.2900000E-01 9.2900000E-01
EXPONENTS  9.2900000E-01 9.2900000E-01 9.2900000E-01 9.2900000E-01
MO    1                     OCC NO =   1.00000000 ORB. ENERGY = -237.66267493
  7.47054054E+00  5.56022674E+00  5.08860632E+00  5.38139291E+00  6.34313597E+00
  7.96296418E+00  1.00798491E+01  1.24431384E+01  1.30917217E+01  1.02015123E+01
  4.48606810E+00  1.47551307E-01  5.28556423E-01  1.10434092E+00  1.05544507E+00
  9.41309023E-01 -1.89010050E-02  1.39322418E-02 -4.68270339E-03  1.56319062E-03
 -3.08438804E-04  3.97999668E-05 -1.83676064E-05  3.09928482E-06  0.00000000E+00
  0.00000000E+00  0.00000000E+00  0.00000000E+00  0.00000000E+00  0.00000000E+00
  0.00000000E+00  0.00000000E+00  0.00000000E+00  0.00000000E+00  0.00000000E+00
  0.00000000E+00  0.00000000E+00  0.00000000E+00  0.00000000E+00  0.00000000E+00
  0.00000000E+00  0.00000000E+00  0.00000000E+00  0.00000000E+00  0.00000000E+00
  0.00000000E+00  0.00000000E+00  0.00000000E+00  0.00000000E+00  0.00000000E+00
  0.00000000E+00  0.00000000E+00  0.00000000E+00  0.00000000E+00  0.00000000E+00
  0.00000000E+00  0.00000000E+00  0.00000000E+00  0.00000000E+00  0.00000000E+00
  0.00000000E+00  0.00000000E+00  0.00000000E+00  0.00000000E+00  0.00000000E+00
  0.00000000E+00  0.00000000E+00  0.00000000E+00  0.00000000E+00  0.00000000E+00
  0.00000000E+00  0.00000000E+00  0.00000000E+00  0.00000000E+00  0.00000000E+00
  0.00000000E+00  0.00000000E+00  0.00000000E+00  0.00000000E+00  0.00000000E+00
  0.00000000E+00  0.00000000E+00  0.00000000E+00  0.00000000E+00  0.00000000E+00
  0.00000000E+00  0.00000000E+00  0.00000000E+00  0.00000000E+00  0.00000000E+00
  0.00000000E+00  0.00000000E+00  0.00000000E+00  0.00000000E+00  0.00000000E+00
  0.00000000E+00  0.00000000E+00  0.00000000E+00  0.00000000E+00  0.00000000E+00
  0.00000000E+00  0.00000000E+00  0.00000000E+00  0.00000000E+00  0.00000000E+00
  0.00000000E+00  0.00000000E+00  0.00000000E+00  0.00000000E+00  0.00000000E+00
  0.00000000E+00  0.00000000E+00  0.00000000E+00  0.00000000E+00  0.00000000E+00
  0.00000000E+00  0.00000000E+00  0.00000000E+00  0.00000000E+00  0.00000000E+00
  0.00000000E+00  0.00000000E+00  0.00000000E+00  0.00000000E+00  0.00000000E+00
  0.00000000E+00  0.00000000E+00  0.00000000E+00  0.00000000E+00  0.00000000E+00
  0.00000000E+00  0.00000000E+00  0.00000000E+00  0.00000000E+00  0.00000000E+00
  0.00000000E+00  0.00000000E+00  0.00000000E+00  0.00000000E+00  0.00000000E+00
  0.00000000E+00  0.00000000E+00  0.00000000E+00  0.00000000E+00  0.00000000E+00
  0.00000000E+00  0.00000000E+00  0.00000000E+00  0.00000000E+00  0.00000000E+00
  0.00000000E+00  0.00000000E+00  0.00000000E+00  0.00000000E+00  0.00000000E+00
  0.00000000E+00  0.00000000E+00  0.00000000E+00  0.00000000E+00  0.00000000E+00
  0.00000000E+00  0.00000000E+00  0.00000000E+00  0.00000000E+00  0.00000000E+00
  0.00000000E+00  0.00000000E+00  0.00000000E+00  0.00000000E+00  0.00000000E+00
  0.00000000E+00  0.00000000E+00  0.00000000E+00  0.00000000E+00  0.00000000E+00
  0.00000000E+00  0.00000000E+00  0.00000000E+00  0.00000000E+00  0.00000000E+00
  0.00000000E+00  0.00000000E+00  0.00000000E+00  0.00000000E+00  0.00000000E+00
  0.00000000E+00  0.00000000E+00  0.00000000E+00  0.00000000E+00  0.00000000E+00
  0.00000000E+00  0.00000000E+00  0.00000000E+00  0.00000000E+00  0.00000000E+00
  0.00000000E+00  0.00000000E+00  0.00000000E+00  0.00000000E+00
MO    2                     OCC NO =   1.00000000 ORB. ENERGY = -27.89430536
 -2.31432573E+00 -1.72252272E+00 -1.57641773E+00 -1.66712114E+00 -1.96506300E+00
 -2.46687543E+00 -3.12267284E+00 -3.85480478E+00 -4.05573175E+00 -3.16036334E+00
 -1.38975524E+00 -2.92723308E-01 -1.04858973E+00 -2.19087403E+00 -2.09387080E+00
  3.23079826E-01  2.70496969E+00  1.59806907E+00  1.82662138E-01 -1.13232044E-02
  2.18735131E-03 -2.44355386E-04  1.12519853E-04 -1.89714620E-05  0.00000000E+00
  0.00000000E+00  0.00000000E+00  0.00000000E+00  0.00000000E+00  0.00000000E+00
  0.00000000E+00  0.00000000E+00  0.00000000E+00  0.00000000E+00  0.00000000E+00
  0.00000000E+00  0.00000000E+00  0.00000000E+00  0.00000000E+00  0.00000000E+00
  0.00000000E+00  0.00000000E+00  0.00000000E+00  0.00000000E+00  0.00000000E+00
  0.00000000E+00  0.00000000E+00  0.00000000E+00  0.00000000E+00  0.00000000E+00
  0.00000000E+00  0.00000000E+00  0.00000000E+00  0.00000000E+00  0.00000000E+00
  0.00000000E+00  0.00000000E+00  0.00000000E+00  0.00000000E+00  0.00000000E+00
  0.00000000E+00  0.00000000E+00  0.00000000E+00  0.00000000E+00  0.00000000E+00
  0.00000000E+00  0.00000000E+00  0.00000000E+00  0.00000000E+00  0.00000000E+00
  0.00000000E+00  0.00000000E+00  0.00000000E+00  0.00000000E+00  0.00000000E+00
  0.00000000E+00  0.00000000E+00  0.00000000E+00  0.00000000E+00  0.00000000E+00
  0.00000000E+00  0.00000000E+00  0.00000000E+00  0.00000000E+00  0.00000000E+00
  0.00000000E+00  0.00000000E+00  0.00000000E+00  0.00000000E+00  0.00000000E+00
  0.00000000E+00  0.00000000E+00  0.00000000E+00  0.00000000E+00  0.00000000E+00
  0.00000000E+00  0.00000000E+00  0.00000000E+00  0.00000000E+00  0.00000000E+00
  0.00000000E+00  0.00000000E+00  0.00000000E+00  0.00000000E+00  0.00000000E+00
  0.00000000E+00  0.00000000E+00  0.00000000E+00  0.00000000E+00  0.00000000E+00
  0.00000000E+00  0.00000000E+00  0.00000000E+00  0.00000000E+00  0.00000000E+00
  0.00000000E+00  0.00000000E+00  0.00000000E+00  0.00000000E+00  0.00000000E+00
  0.00000000E+00  0.00000000E+00  0.00000000E+00  0.00000000E+00  0.00000000E+00
  0.00000000E+00  0.00000000E+00  0.00000000E+00  0.00000000E+00  0.00000000E+00
  0.00000000E+00  0.00000000E+00  0.00000000E+00  0.00000000E+00  0.00000000E+00
  0.00000000E+00  0.00000000E+00  0.00000000E+00  0.00000000E+00  0.00000000E+00
  0.00000000E+00  0.00000000E+00  0.00000000E+00  0.00000000E+00  0.00000000E+00
  0.00000000E+00  0.00000000E+00  0.00000000E+00  0.00000000E+00  0.00000000E+00
  0.00000000E+00  0.00000000E+00  0.00000000E+00  0.00000000E+00  0.00000000E+00
  0.00000000E+00  0.00000000E+00  0.00000000E+00  0.00000000E+00  0.00000000E+00
  0.00000000E+00  0.00000000E+00  0.00000000E+00  0.00000000E+00  0.00000000E+00
  0.00000000E+00  0.00000000E+00  0.00000000E+00  0.00000000E+00  0.00000000E+00
  0.00000000E+00  0.00000000E+00  0.00000000E+00  0.00000000E+00  0.00000000E+00
  0.00000000E+00  0.00000000E+00  0.00000000E+00  0.00000000E+00  0.00000000E+00
  0.00000000E+00  0.00000000E+00  0.00000000E+00  0.00000000E+00  0.00000000E+00
  0.00000000E+00  0.00000000E+00  0.00000000E+00  0.00000000E+00  0.00000000E+00
  0.00000000E+00  0.00000000E+00  0.00000000E+00  0.00000000E+00  0.00000000E+00
  0.00000000E+00  0.00000000E+00  0.00000000E+00  0.00000000E+00
MO    3                     OCC NO =   1.00000000 ORB. ENERGY =  -3.43391368
  8.69874983E-01  6.47436703E-01  5.92520891E-01  6.26613167E-01  7.38599203E-01
  9.27213137E-01  1.17370470E+00  1.44888777E+00  1.52440926E+00  1.18787125E+00
  5.22360918E-01  1.27016449E-01  4.54996714E-01  9.50648721E-01  9.08557758E-01
 -1.53546277E-01 -1.60666390E+00 -1.43359114E+00  1.87000569E-01  6.86549770E-01
  2.03970019E-01  3.35488728E-03 -1.01132035E-03  1.45772764E-04  0.00000000E+00
  0.00000000E+00  0.00000000E+00  0.00000000E+00  0.00000000E+00  0.00000000E+00
  0.00000000E+00  0.00000000E+00  0.00000000E+00  0.00000000E+00  0.00000000E+00
  0.00000000E+00  0.00000000E+00  0.00000000E+00  0.00000000E+00  0.00000000E+00
  0.00000000E+00  0.00000000E+00  0.00000000E+00  0.00000000E+00  0.00000000E+00
  0.00000000E+00  0.00000000E+00  0.00000000E+00  0.00000000E+00  0.00000000E+00
  0.00000000E+00  0.00000000E+00  0.00000000E+00  0.00000000E+00  0.00000000E+00
  0.00000000E+00  0.00000000E+00  0.00000000E+00  0.00000000E+00  0.00000000E+00
  0.00000000E+00  0.00000000E+00  0.00000000E+00  0.00000000E+00  0.00000000E+00
  0.00000000E+00  0.00000000E+00  0.00000000E+00  0.00000000E+00  0.00000000E+00
  0.00000000E+00  0.00000000E+00  0.00000000E+00  0.00000000E+00  0.00000000E+00
  0.00000000E+00  0.00000000E+00  0.00000000E+00  0.00000000E+00  0.00000000E+00
  0.00000000E+00  0.00000000E+00  0.00000000E+00  0.00000000E+00  0.00000000E+00
  0.00000000E+00  0.00000000E+00  0.00000000E+00  0.00000000E+00  0.00000000E+00
  0.00000000E+00  0.00000000E+00  0.00000000E+00  0.00000000E+00  0.00000000E+00
  0.00000000E+00  0.00000000E+00  0.00000000E+00  0.00000000E+00  0.00000000E+00
  0.00000000E+00  0.00000000E+00  0.00000000E+00  0.00000000E+00  0.00000000E+00
  0.00000000E+00  0.00000000E+00  0.00000000E+00  0.00000000E+00  0.00000000E+00
  0.00000000E+00  0.00000000E+00  0.00000000E+00  0.00000000E+00  0.00000000E+00
  0.00000000E+00  0.00000000E+00  0.00000000E+00  0.00000000E+00  0.00000000E+00
  0.00000000E+00  0.00000000E+00  0.00000000E+00  0.00000000E+00  0.00000000E+00
  0.00000000E+00  0.00000000E+00  0.00000000E+00  0.00000000E+00  0.00000000E+00
  0.00000000E+00  0.00000000E+00  0.00000000E+00  0.00000000E+00  0.00000000E+00
  0.00000000E+00  0.00000000E+00  0.00000000E+00  0.00000000E+00  0.00000000E+00
  0.00000000E+00  0.00000000E+00  0.00000000E+00  0.00000000E+00  0.00000000E+00
  0.00000000E+00  0.00000000E+00  0.00000000E+00  0.00000000E+00  0.00000000E+00
  0.00000000E+00  0.00000000E+00  0.00000000E+00  0.00000000E+00  0.00000000E+00
  0.00000000E+00  0.00000000E+00  0.00000000E+00  0.00000000E+00  0.00000000E+00
  0.00000000E+00  0.00000000E+00  0.00000000E+00  0.00000000E+00  0.00000000E+00
  0.00000000E+00  0.00000000E+00  0.00000000E+00  0.00000000E+00  0.00000000E+00
  0.00000000E+00  0.00000000E+00  0.00000000E+00  0.00000000E+00  0.00000000E+00
  0.00000000E+00  0.00000000E+00  0.00000000E+00  0.00000000E+00  0.00000000E+00
  0.00000000E+00  0.00000000E+00  0.00000000E+00  0.00000000E+00  0.00000000E+00
  0.00000000E+00  0.00000000E+00  0.00000000E+00  0.00000000E+00  0.00000000E+00
  0.00000000E+00  0.00000000E+00  0.00000000E+00  0.00000000E+00  0.00000000E+00
  0.00000000E+00  0.00000000E+00  0.00000000E+00  0.00000000E+00
MO    4                     OCC NO =   1.00000000 ORB. ENERGY =  -0.22610396
 -2.26407107E-01 -1.68511882E-01 -1.54218644E-01 -1.63092027E-01 -1.92239243E-01
 -2.41330821E-01 -3.05486524E-01 -3.77109922E-01 -3.96766314E-01 -3.09173730E-01
 -1.35957725E-01 -3.35033365E-02 -1.20015228E-01 -2.50754168E-01 -2.39651766E-01
  3.66397335E-02  4.52540129E-01  4.08447440E-01 -5.00076276E-02 -3.04571470E-01
 -1.23057732E-01  8.50454970E-02  4.60657803E-02  8.17417526E-03  0.00000000E+00
  0.00000000E+00  0.00000000E+00  0.00000000E+00  0.00000000E+00  0.00000000E+00
  0.00000000E+00  0.00000000E+00  0.00000000E+00  0.00000000E+00  0.00000000E+00
  0.00000000E+00  0.00000000E+00  0.00000000E+00  0.00000000E+00  0.00000000E+00
  0.00000000E+00  0.00000000E+00  0.00000000E+00  0.00000000E+00  0.00000000E+00
  0.00000000E+00  0.00000000E+00  0.00000000E+00  0.00000000E+00  0.00000000E+00
  0.00000000E+00  0.00000000E+00  0.00000000E+00  0.00000000E+00  0.00000000E+00
  0.00000000E+00  0.00000000E+00  0.00000000E+00  0.00000000E+00  0.00000000E+00
  0.00000000E+00  0.00000000E+00  0.00000000E+00  0.00000000E+00  0.00000000E+00
  0.00000000E+00  0.00000000E+00  0.00000000E+00  0.00000000E+00  0.00000000E+00
  0.00000000E+00  0.00000000E+00  0.00000000E+00  0.00000000E+00  0.00000000E+00
  0.00000000E+00  0.00000000E+00  0.00000000E+00  0.00000000E+00  0.00000000E+00
  0.00000000E+00  0.00000000E+00  0.00000000E+00  0.00000000E+00  0.00000000E+00
  0.00000000E+00  0.00000000E+00  0.00000000E+00  0.00000000E+00  0.00000000E+00
  0.00000000E+00  0.00000000E+00  0.00000000E+00  0.00000000E+00  0.00000000E+00
  0.00000000E+00  0.00000000E+00  0.00000000E+00  0.00000000E+00  0.00000000E+00
  0.00000000E+00  0.00000000E+00  0.00000000E+00  0.00000000E+00  0.00000000E+00
  0.00000000E+00  0.00000000E+00  0.00000000E+00  0.00000000E+00  0.00000000E+00
  0.00000000E+00  0.00000000E+00  0.00000000E+00  0.00000000E+00  0.00000000E+00
  0.00000000E+00  0.00000000E+00  0.00000000E+00  0.00000000E+00  0.00000000E+00
  0.00000000E+00  0.00000000E+00  0.00000000E+00  0.00000000E+00  0.00000000E+00
  0.00000000E+00  0.00000000E+00  0.00000000E+00  0.00000000E+00  0.00000000E+00
  0.00000000E+00  0.00000000E+00  0.00000000E+00  0.00000000E+00  0.00000000E+00
  0.00000000E+00  0.00000000E+00  0.00000000E+00  0.00000000E+00  0.00000000E+00
  0.00000000E+00  0.00000000E+00  0.00000000E+00  0.00000000E+00  0.00000000E+00
  0.00000000E+00  0.00000000E+00  0.00000000E+00  0.00000000E+00  0.00000000E+00
  0.00000000E+00  0.00000000E+00  0.00000000E+00  0.00000000E+00  0.00000000E+00
  0.00000000E+00  0.00000000E+00  0.00000000E+00  0.00000000E+00  0.00000000E+00
  0.00000000E+00  0.00000000E+00  0.00000000E+00  0.00000000E+00  0.00000000E+00
  0.00000000E+00  0.00000000E+00  0.00000000E+00  0.00000000E+00  0.00000000E+00
  0.00000000E+00  0.00000000E+00  0.00000000E+00  0.00000000E+00  0.00000000E+00
  0.00000000E+00  0.00000000E+00  0.00000000E+00  0.00000000E+00  0.00000000E+00
  0.00000000E+00  0.00000000E+00  0.00000000E+00  0.00000000E+00  0.00000000E+00
  0.00000000E+00  0.00000000E+00  0.00000000E+00  0.00000000E+00  0.00000000E+00
  0.00000000E+00  0.00000000E+00  0.00000000E+00  0.00000000E+00  0.00000000E+00
  0.00000000E+00  0.00000000E+00  0.00000000E+00  0.00000000E+00
MO    5                     OCC NO =   1.00000000 ORB. ENERGY = -23.59252165
  0.00000000E+00  0.00000000E+00  0.00000000E+00  0.00000000E+00  0.00000000E+00
  0.00000000E+00  0.00000000E+00  0.00000000E+00  0.00000000E+00  0.00000000E+00
  0.00000000E+00  0.00000000E+00  0.00000000E+00  0.00000000E+00  0.00000000E+00
  0.00000000E+00  0.00000000E+00  0.00000000E+00  0.00000000E+00  0.00000000E+00
  0.00000000E+00  0.00000000E+00  0.00000000E+00  0.00000000E+00  2.71238762E+01
  0.00000000E+00  0.00000000E+00  2.27499550E+01  0.00000000E+00  0.00000000E+00
  2.83473856E+01  0.00000000E+00  0.00000000E+00  3.70092083E+01  0.00000000E+00
  0.00000000E+00  4.25229066E+01  0.00000000E+00  0.00000000E+00  4.27816788E+01
  0.00000000E+00  0.00000000E+00  3.54030678E+01  0.00000000E+00  0.00000000E+00
  2.02704976E+01  0.00000000E+00  0.00000000E+00  6.39302820E+00  0.00000000E+00
  0.00000000E+00  6.64409598E-01  0.00000000E+00  0.00000000E+00 -5.97582656E-02
  0.00000000E+00  0.00000000E+00 -1.15285532E-02  0.00000000E+00  0.00000000E+00
 -1.39149968E-02  0.00000000E+00  0.00000000E+00  1.91249909E-02  0.00000000E+00
  0.00000000E+00  1.51780279E-02  0.00000000E+00  0.00000000E+00  4.54091268E-03
  0.00000000E+00  0.00000000E+00 -2.22322908E-03  0.00000000E+00  0.00000000E+00
  6.36812819E-04  0.00000000E+00  0.00000000E+00 -1.17567261E-04  0.00000000E+00
  0.00000000E+00  1.35702851E-05  0.00000000E+00  0.00000000E+00  0.00000000E+00
  0.00000000E+00  0.00000000E+00  0.00000000E+00  0.00000000E+00  0.00000000E+00
  0.00000000E+00  0.00000000E+00  0.00000000E+00  0.00000000E+00  0.00000000E+00
  0.00000000E+00  0.00000000E+00  0.00000000E+00  0.00000000E+00  0.00000000E+00
  0.00000000E+00  0.00000000E+00  0.00000000E+00  0.00000000E+00  0.00000000E+00
  0.00000000E+00  0.00000000E+00  0.00000000E+00  0.00000000E+00  0.00000000E+00
  0.00000000E+00  0.00000000E+00  0.00000000E+00  0.00000000E+00  0.00000000E+00
  0.00000000E+00  0.00000000E+00  0.00000000E+00  0.00000000E+00  0.00000000E+00
  0.00000000E+00  0.00000000E+00  0.00000000E+00  0.00000000E+00  0.00000000E+00
  0.00000000E+00  0.00000000E+00  0.00000000E+00  0.00000000E+00  0.00000000E+00
  0.00000000E+00  0.00000000E+00  0.00000000E+00  0.00000000E+00  0.00000000E+00
  0.00000000E+00  0.00000000E+00  0.00000000E+00  0.00000000E+00  0.00000000E+00
  0.00000000E+00  0.00000000E+00  0.00000000E+00  0.00000000E+00  0.00000000E+00
  0.00000000E+00  0.00000000E+00  0.00000000E+00  0.00000000E+00  0.00000000E+00
  0.00000000E+00  0.00000000E+00  0.00000000E+00  0.00000000E+00  0.00000000E+00
  0.00000000E+00  0.00000000E+00  0.00000000E+00  0.00000000E+00  0.00000000E+00
  0.00000000E+00  0.00000000E+00  0.00000000E+00  0.00000000E+00  0.00000000E+00
  0.00000000E+00  0.00000000E+00  0.00000000E+00  0.00000000E+00  0.00000000E+00
  0.00000000E+00  0.00000000E+00  0.00000000E+00  0.00000000E+00  0.00000000E+00
  0.00000000E+00  0.00000000E+00  0.00000000E+00  0.00000000E+00  0.00000000E+00
  0.00000000E+00  0.00000000E+00  0.00000000E+00  0.00000000E+00  0.00000000E+00
  0.00000000E+00  0.00000000E+00  0.00000000E+00  0.00000000E+00  0.00000000E+00
  0.00000000E+00  0.00000000E+00  0.00000000E+00  0.00000000E+00  0.00000000E+00
  0.00000000E+00  0.00000000E+00  0.00000000E+00  0.00000000E+00
MO    6                     OCC NO =   1.00000000 ORB. ENERGY = -23.59252165
  0.00000000E+00  0.00000000E+00  0.00000000E+00  0.00000000E+00  0.00000000E+00
  0.00000000E+00  0.00000000E+00  0.00000000E+00  0.00000000E+00  0.00000000E+00
  0.00000000E+00  0.00000000E+00  0.00000000E+00  0.00000000E+00  0.00000000E+00
  0.00000000E+00  0.00000000E+00  0.00000000E+00  0.00000000E+00  0.00000000E+00
  0.00000000E+00  0.00000000E+00  0.00000000E+00  0.00000000E+00  0.00000000E+00
  2.71238762E+01  0.00000000E+00  0.00000000E+00  2.27499550E+01  0.00000000E+00
  0.00000000E+00  2.83473856E+01  0.00000000E+00  0.00000000E+00  3.70092083E+01
  0.00000000E+00  0.00000000E+00  4.25229066E+01  0.00000000E+00  0.00000000E+00
  4.27816788E+01  0.00000000E+00  0.00000000E+00  3.54030678E+01  0.00000000E+00
  0.00000000E+00  2.02704976E+01  0.00000000E+00  0.00000000E+00  6.39302820E+00
  0.00000000E+00  0.00000000E+00  6.64409598E-01  0.00000000E+00  0.00000000E+00
 -5.97582656E-02  0.00000000E+00  0.00000000E+00 -1.15285532E-02  0.00000000E+00
  0.00000000E+00 -1.39149968E-02  0.00000000E+00  0.00000000E+00  1.91249909E-02
  0.00000000E+00  0.00000000E+00  1.51780279E-02  0.00000000E+00  0.00000000E+00
  4.54091268E-03  0.00000000E+00  0.00000000E+00 -2.22322908E-03  0.00000000E+00
  0.00000000E+00  6.36812819E-04  0.00000000E+00  0.00000000E+00 -1.17567261E-04
  0.00000000E+00  0.00000000E+00  1.35702851E-05  0.00000000E+00  0.00000000E+00
  0.00000000E+00  0.00000000E+00  0.00000000E+00  0.00000000E+00  0.00000000E+00
  0.00000000E+00  0.00000000E+00  0.00000000E+00  0.00000000E+00  0.00000000E+00
  0.00000000E+00  0.00000000E+00  0.00000000E+00  0.00000000E+00  0.00000000E+00
  0.00000000E+00  0.00000000E+00  0.00000000E+00  0.00000000E+00  0.00000000E+00
  0.00000000E+00  0.00000000E+00  0.00000000E+00  0.00000000E+00  0.00000000E+00
  0.00000000E+00  0.00000000E+00  0.00000000E+00  0.00000000E+00  0.00000000E+00
  0.00000000E+00  0.00000000E+00  0.00000000E+00  0.00000000E+00  0.00000000E+00
  0.00000000E+00  0.00000000E+00  0.00000000E+00  0.00000000E+00  0.00000000E+00
  0.00000000E+00  0.00000000E+00  0.00000000E+00  0.00000000E+00  0.00000000E+00
  0.00000000E+00  0.00000000E+00  0.00000000E+00  0.00000000E+00  0.00000000E+00
  0.00000000E+00  0.00000000E+00  0.00000000E+00  0.00000000E+00  0.00000000E+00
  0.00000000E+00  0.00000000E+00  0.00000000E+00  0.00000000E+00  0.00000000E+00
  0.00000000E+00  0.00000000E+00  0.00000000E+00  0.00000000E+00  0.00000000E+00
  0.00000000E+00  0.00000000E+00  0.00000000E+00  0.00000000E+00  0.00000000E+00
  0.00000000E+00  0.00000000E+00  0.00000000E+00  0.00000000E+00  0.00000000E+00
  0.00000000E+00  0.00000000E+00  0.00000000E+00  0.00000000E+00  0.00000000E+00
  0.00000000E+00  0.00000000E+00  0.00000000E+00  0.00000000E+00  0.00000000E+00
  0.00000000E+00  0.00000000E+00  0.00000000E+00  0.00000000E+00  0.00000000E+00
  0.00000000E+00  0.00000000E+00  0.00000000E+00  0.00000000E+00  0.00000000E+00
  0.00000000E+00  0.00000000E+00  0.00000000E+00  0.00000000E+00  0.00000000E+00
  0.00000000E+00  0.00000000E+00  0.00000000E+00  0.00000000E+00  0.00000000E+00
  0.00000000E+00  0.00000000E+00  0.00000000E+00  0.00000000E+00  0.00000000E+00
  0.00000000E+00  0.00000000E+00  0.00000000E+00  0.00000000E+00
MO    7                     OCC NO =   1.00000000 ORB. ENERGY = -23.59252165
  0.00000000E+00  0.00000000E+00  0.00000000E+00  0.00000000E+00  0.00000000E+00
  0.00000000E+00  0.00000000E+00  0.00000000E+00  0.00000000E+00  0.00000000E+00
  0.00000000E+00  0.00000000E+00  0.00000000E+00  0.00000000E+00  0.00000000E+00
  0.00000000E+00  0.00000000E+00  0.00000000E+00  0.00000000E+00  0.00000000E+00
  0.00000000E+00  0.00000000E+00  0.00000000E+00  0.00000000E+00  0.00000000E+00
  0.00000000E+00  2.71238762E+01  0.00000000E+00  0.00000000E+00  2.27499550E+01
  0.00000000E+00  0.00000000E+00  2.83473856E+01  0.00000000E+00  0.00000000E+00
  3.70092083E+01  0.00000000E+00  0.00000000E+00  4.25229066E+01  0.00000000E+00
  0.00000000E+00  4.27816788E+01  0.00000000E+00  0.00000000E+00  3.54030678E+01
  0.00000000E+00  0.00000000E+00  2.02704976E+01  0.00000000E+00  0.00000000E+00
  6.39302820E+00  0.00000000E+00  0.00000000E+00  6.64409598E-01  0.00000000E+00
  0.00000000E+00 -5.97582656E-02  0.00000000E+00  0.00000000E+00 -1.15285532E-02
  0.00000000E+00  0.00000000E+00 -1.39149968E-02  0.00000000E+00  0.00000000E+00
  1.91249909E-02  0.00000000E+00  0.00000000E+00  1.51780279E-02  0.00000000E+00
  0.00000000E+00  4.54091268E-03  0.00000000E+00  0.00000000E+00 -2.22322908E-03
  0.00000000E+00  0.00000000E+00  6.36812819E-04  0.00000000E+00  0.00000000E+00
 -1.17567261E-04  0.00000000E+00  0.00000000E+00  1.35702851E-05  0.00000000E+00
  0.00000000E+00  0.00000000E+00  0.00000000E+00  0.00000000E+00  0.00000000E+00
  0.00000000E+00  0.00000000E+00  0.00000000E+00  0.00000000E+00  0.00000000E+00
  0.00000000E+00  0.00000000E+00  0.00000000E+00  0.00000000E+00  0.00000000E+00
  0.00000000E+00  0.00000000E+00  0.00000000E+00  0.00000000E+00  0.00000000E+00
  0.00000000E+00  0.00000000E+00  0.00000000E+00  0.00000000E+00  0.00000000E+00
  0.00000000E+00  0.00000000E+00  0.00000000E+00  0.00000000E+00  0.00000000E+00
  0.00000000E+00  0.00000000E+00  0.00000000E+00  0.00000000E+00  0.00000000E+00
  0.00000000E+00  0.00000000E+00  0.00000000E+00  0.00000000E+00  0.00000000E+00
  0.00000000E+00  0.00000000E+00  0.00000000E+00  0.00000000E+00  0.00000000E+00
  0.00000000E+00  0.00000000E+00  0.00000000E+00  0.00000000E+00  0.00000000E+00
  0.00000000E+00  0.00000000E+00  0.00000000E+00  0.00000000E+00  0.00000000E+00
  0.00000000E+00  0.00000000E+00  0.00000000E+00  0.00000000E+00  0.00000000E+00
  0.00000000E+00  0.00000000E+00  0.00000000E+00  0.00000000E+00  0.00000000E+00
  0.00000000E+00  0.00000000E+00  0.00000000E+00  0.00000000E+00  0.00000000E+00
  0.00000000E+00  0.00000000E+00  0.00000000E+00  0.00000000E+00  0.00000000E+00
  0.00000000E+00  0.00000000E+00  0.00000000E+00  0.00000000E+00  0.00000000E+00
  0.00000000E+00  0.00000000E+00  0.00000000E+00  0.00000000E+00  0.00000000E+00
  0.00000000E+00  0.00000000E+00  0.00000000E+00  0.00000000E+00  0.00000000E+00
  0.00000000E+00  0.00000000E+00  0.00000000E+00  0.00000000E+00  0.00000000E+00
  0.00000000E+00  0.00000000E+00  0.00000000E+00  0.00000000E+00  0.00000000E+00
  0.00000000E+00  0.00000000E+00  0.00000000E+00  0.00000000E+00  0.00000000E+00
  0.00000000E+00  0.00000000E+00  0.00000000E+00  0.00000000E+00  0.00000000E+00
  0.00000000E+00  0.00000000E+00  0.00000000E+00  0.00000000E+00
MO    8                     OCC NO =   1.00000000 ORB. ENERGY =  -2.23360746
  0.00000000E+00  0.00000000E+00  0.00000000E+00  0.00000000E+00  0.00000000E+00
  0.00000000E+00  0.00000000E+00  0.00000000E+00  0.00000000E+00  0.00000000E+00
  0.00000000E+00  0.00000000E+00  0.00000000E+00  0.00000000E+00  0.00000000E+00
  0.00000000E+00  0.00000000E+00  0.00000000E+00  0.00000000E+00  0.00000000E+00
  0.00000000E+00  0.00000000E+00  0.00000000E+00  0.00000000E+00 -1.01920588E+01
  0.00000000E+00  0.00000000E+00 -8.54851563E+00  0.00000000E+00  0.00000000E+00
 -1.06518043E+01  0.00000000E+00  0.00000000E+00 -1.39065679E+01  0.00000000E+00
  0.00000000E+00 -1.59783934E+01  0.00000000E+00  0.00000000E+00 -1.60756296E+01
  0.00000000E+00  0.00000000E+00 -1.33030451E+01  0.00000000E+00  0.00000000E+00
 -7.61683553E+00  0.00000000E+00  0.00000000E+00 -2.40224218E+00  0.00000000E+00
  0.00000000E+00 -2.49658332E-01  0.00000000E+00  0.00000000E+00  1.94367044E-01
  0.00000000E+00  0.00000000E+00 -1.12550180E+00  0.00000000E+00  0.00000000E+00
 -1.35848389E+00  0.00000000E+00  0.00000000E+00  1.86712167E+00  0.00000000E+00
  0.00000000E+00  1.48179024E+00  0.00000000E+00  0.00000000E+00  4.43317151E-01
  0.00000000E+00  0.00000000E+00  2.85848797E-02  0.00000000E+00  0.00000000E+00
  1.12362468E-03  0.00000000E+00  0.00000000E+00 -1.81897660E-04  0.00000000E+00
  0.00000000E+00  2.38026636E-05  0.00000000E+00  0.00000000E+00  0.00000000E+00
  0.00000000E+00  0.00000000E+00  0.00000000E+00  0.00000000E+00  0.00000000E+00
  0.00000000E+00  0.00000000E+00  0.00000000E+00  0.00000000E+00  0.00000000E+00
  0.00000000E+00  0.00000000E+00  0.00000000E+00  0.00000000E+00  0.00000000E+00
  0.00000000E+00  0.00000000E+00  0.00000000E+00  0.00000000E+00  0.00000000E+00
  0.00000000E+00  0.00000000E+00  0.00000000E+00  0.00000000E+00  0.00000000E+00