atomref-proatoms N_q0_mult4_nist x2c-QZVPall
GAUSSIAN              7 MOL ORBITALS     92 PRIMITIVES        1 NUCLEI
  N    1    (CENTRE  1)   0.00000000  0.00000000  0.00000000  CHARGE = 7.0
CENTRE ASSIGNMENTS    1  1  1  1  1  1  1  1  1  1  1  1  1  1  1  1  1  1  1  1
CENTRE ASSIGNMENTS    1  1  1  1  1  1  1  1  1  1  1  1  1  1  1  1  1  1  1  1
CENTRE ASSIGNMENTS    1  1  1  1  1  1  1  1  1  1  1  1  1  1  1  1  1  1  1  1
CENTRE ASSIGNMENTS    1  1  1  1  1  1  1  1  1  1  1  1  1  1  1  1  1  1  1  1
CENTRE ASSIGNMENTS    1  1  1  1  1  1  1  1  1  1  1  1
TYPE ASSIGNMENTS      1  1  1  1  1  1  1  1  1  1  1  1  1  1  1  2  3  4  2  3
TYPE ASSIGNMENTS      4  2  3  4  2  3  4  2  3  4  2  3  4  2  3  4  2  3  4  5
TYPE ASSIGNMENTS      8  9  6 10  7  5  8  9  6 10  7  5  8  9  6 10  7 11 14 15
TYPE ASSIGNMENTS     17 20 18 12 16 19 13 11 14 15 17 20 18 12 16 19 13 21 24 25
TYPE ASSIGNMENTS     30 33 31 26 34 35 28 22 27 32 29 23
EXPONENTS  9.0774190E+04 1.3590532E+04 3.0927552E+03 8.7583245E+02 2.8583617E+02
EXPONENTS  1.0314102E+02 4.0136857E+01 1.6526499E+01 6.9391974E+01 2.0428209E+01
EXPONENTS  7.1296191E+00 3.1330682E+00 9.8771012E-01 3.8754612E-01 1.4910419E-01
EXPONENTS  1.5005817E+02 1.5005817E+02 1.5005817E+02 3.5488884E+01 3.5488884E+01
EXPONENTS  3.5488884E+01 1.1247865E+01 1.1247865E+01 1.1247865E+01 4.0900078E+00
EXPONENTS  4.0900078E+00 4.0900078E+00 1.6220573E+00 1.6220573E+00 1.6220573E+00
EXPONENTS  6.6441726E-01 6.6441726E-01 6.6441726E-01 2.7099768E-01 2.7099768E-01
EXPONENTS  2.7099768E-01 1.0688750E-01 1.0688750E-01 1.0688750E-01 2.8370000E+00
EXPONENTS  2.8370000E+00 2.8370000E+00 2.8370000E+00 2.8370000E+00 2.8370000E+00
EXPONENTS  9.6800000E-01 9.6800000E-01 9.6800000E-01 9.6800000E-01 9.6800000E-01
EXPONENTS  9.6800000E-01 3.3500000E-01 3.3500000E-01 3.3500000E-01 3.3500000E-01
EXPONENTS  3.3500000E-01 3.3500000E-01 2.0270000E+00 2.0270000E+00 2.0270000E+00
EXPONENTS  2.0270000E+00 2.0270000E+00 2.0270000E+00 2.0270000E+00 2.0270000E+00
EXPONENTS  2.0270000E+00 2.0270000E+00 6.8500000E-01 6.8500000E-01 6.8500000E-01
EXPONENTS  6.8500000E-01 6.8500000E-01 6.8500000E-01 6.8500000E-01 6.8500000E-01
EXPONENTS  6.8500000E-01 6.8500000E-01 1.4270000E+00 1.4270000E+00 1.4270000E+00
EXPONENTS  1.4270000E+00 1.4270000E+00 1.4270000E+00 1.4270000E+00 1.4270000E+00
EXPONENTS  1.4270000E+00 1.4270000E+00 1.4270000E+00 1.4270000E+00 1.4270000E+00
EXPONENTS  1.4270000E+00 1.4270000E+00
MO    1                     OCC NO =   1.00000000 ORB. ENERGY = -14.50983560
  3.06146484E-01  3.59623405E-01  5.24009851E-01  7.99388579E-01  1.19666231E+00
  1.66715681E+00  2.02335939E+00  1.92594376E+00 -9.78771355E-03 -3.80878005E-02
  1.11997969E+00  3.00518762E-01  9.77413346E-03 -9.14327502E-04  1.37615495E-04
  0.00000000E+00  0.00000000E+00  0.00000000E+00  0.00000000E+00  0.00000000E+00
  0.00000000E+00  0.00000000E+00  0.00000000E+00  0.00000000E+00  0.00000000E+00
  0.00000000E+00  0.00000000E+00  0.00000000E+00  0.00000000E+00  0.00000000E+00
  0.00000000E+00  0.00000000E+00  0.00000000E+00  0.00000000E+00  0.00000000E+00
  0.00000000E+00  0.00000000E+00  0.00000000E+00  0.00000000E+00  0.00000000E+00
  0.00000000E+00  0.00000000E+00  0.00000000E+00  0.00000000E+00  0.00000000E+00
  0.00000000E+00  0.00000000E+00  0.00000000E+00  0.00000000E+00  0.00000000E+00
  0.00000000E+00  0.00000000E+00  0.00000000E+00  0.00000000E+00  0.00000000E+00
  0.00000000E+00  0.00000000E+00  0.00000000E+00  0.00000000E+00  0.00000000E+00
  0.00000000E+00  0.00000000E+00  0.00000000E+00  0.00000000E+00  0.00000000E+00
  0.00000000E+00  0.00000000E+00  0.00000000E+00  0.00000000E+00  0.00000000E+00
  0.00000000E+00  0.00000000E+00  0.00000000E+00  0.00000000E+00  0.00000000E+00
  0.00000000E+00  0.00000000E+00  0.00000000E+00  0.00000000E+00  0.00000000E+00
  0.00000000E+00  0.00000000E+00  0.00000000E+00  0.00000000E+00  0.00000000E+00
  0.00000000E+00  0.00000000E+00  0.00000000E+00  0.00000000E+00  0.00000000E+00
  0.00000000E+00  0.00000000E+00
MO    2                     OCC NO =   1.00000000 ORB. ENERGY =  -0.84256764
 -7.22222910E-02 -8.48379046E-02 -1.23617921E-01 -1.88581864E-01 -2.82301768E-01
 -3.93295010E-01 -4.77325916E-01 -4.54344826E-01 -2.95557910E-02 -1.15013079E-01
 -4.84776663E-01 -1.54274790E-01  2.41948136E-01  2.04672538E-01  3.81602256E-02
  0.00000000E+00  0.00000000E+00  0.00000000E+00  0.00000000E+00  0.00000000E+00
  0.00000000E+00  0.00000000E+00  0.00000000E+00  0.00000000E+00  0.00000000E+00
  0.00000000E+00  0.00000000E+00  0.00000000E+00  0.00000000E+00  0.00000000E+00
  0.00000000E+00  0.00000000E+00  0.00000000E+00  0.00000000E+00  0.00000000E+00
  0.00000000E+00  0.00000000E+00  0.00000000E+00  0.00000000E+00  0.00000000E+00
  0.00000000E+00  0.00000000E+00  0.00000000E+00  0.00000000E+00  0.00000000E+00
  0.00000000E+00  0.00000000E+00  0.00000000E+00  0.00000000E+00  0.00000000E+00
  0.00000000E+00  0.00000000E+00  0.00000000E+00  0.00000000E+00  0.00000000E+00
  0.00000000E+00  0.00000000E+00  0.00000000E+00  0.00000000E+00  0.00000000E+00
  0.00000000E+00  0.00000000E+00  0.00000000E+00  0.00000000E+00  0.00000000E+00
  0.00000000E+00  0.00000000E+00  0.00000000E+00  0.00000000E+00  0.00000000E+00
  0.00000000E+00  0.00000000E+00  0.00000000E+00  0.00000000E+00  0.00000000E+00
  0.00000000E+00  0.00000000E+00  0.00000000E+00  0.00000000E+00  0.00000000E+00
  0.00000000E+00  0.00000000E+00  0.00000000E+00  0.00000000E+00  0.00000000E+00
  0.00000000E+00  0.00000000E+00  0.00000000E+00  0.00000000E+00  0.00000000E+00
  0.00000000E+00  0.00000000E+00
MO    3                     OCC NO =   1.00000000 ORB. ENERGY =  -0.37465664
  0.00000000E+00  0.00000000E+00  0.00000000E+00  0.00000000E+00  0.00000000E+00
  0.00000000E+00  0.00000000E+00  0.00000000E+00  0.00000000E+00  0.00000000E+00
  0.00000000E+00  0.00000000E+00  0.00000000E+00  0.00000000E+00  0.00000000E+00
  6.76073434E-01  0.00000000E+00  0.00000000E+00  8.70965074E-01  0.00000000E+00
  0.00000000E+00  9.57093643E-01  0.00000000E+00  0.00000000E+00  8.94494567E-01
  0.00000000E+00  0.00000000E+00  6.54713089E-01  0.00000000E+00  0.00000000E+00
  3.14323115E-01  0.00000000E+00  0.00000000E+00  9.41526113E-02  0.00000000E+00
  0.00000000E+00  1.34217740E-02  0.00000000E+00  0.00000000E+00  0.00000000E+00
  0.00000000E+00  0.00000000E+00  0.00000000E+00  0.00000000E+00  0.00000000E+00
  0.00000000E+00  0.00000000E+00  0.00000000E+00  0.00000000E+00  0.00000000E+00
  0.00000000E+00  0.00000000E+00  0.00000000E+00  0.00000000E+00  0.00000000E+00
  0.00000000E+00  0.00000000E+00  0.00000000E+00  0.00000000E+00  0.00000000E+00
  0.00000000E+00  0.00000000E+00  0.00000000E+00  0.00000000E+00  0.00000000E+00
  0.00000000E+00  0.00000000E+00  0.00000000E+00  0.00000000E+00  0.00000000E+00
  0.00000000E+00  0.00000000E+00  0.00000000E+00  0.00000000E+00  0.00000000E+00
  0.00000000E+00  0.00000000E+00  0.00000000E+00  0.00000000E+00  0.00000000E+00
  0.00000000E+00  0.00000000E+00  0.00000000E+00  0.00000000E+00  0.00000000E+00
  0.00000000E+00  0.00000000E+00  0.00000000E+00  0.00000000E+00  0.00000000E+00
  0.00000000E+00  0.00000000E+00
MO    4                     OCC NO =   1.00000000 ORB. ENERGY =  -0.37465664
  0.00000000E+00  0.00000000E+00  0.00000000E+00  0.00000000E+00  0.00000000E+00
  0.00000000E+00  0.00000000E+00  0.00000000E+00  0.00000000E+00  0.00000000E+00
  0.00000000E+00  0.00000000E+00  0.00000000E+00  0.00000000E+00  0.00000000E+00
  0.00000000E+00  6.76073434E-01  0.00000000E+00  0.00000000E+00  8.70965074E-01
  0.00000000E+00  0.00000000E+00  9.57093643E-01  0.00000000E+00  0.00000000E+00
  8.94494567E-01  0.00000000E+00  0.00000000E+00  6.54713089E-01  0.00000000E+00
  0.00000000E+00  3.14323115E-01  0.00000000E+00  0.00000000E+00  9.41526113E-02
  0.00000000E+00  0.00000000E+00  1.34217740E-02  0.00000000E+00  0.00000000E+00
  0.00000000E+00  0.00000000E+00  0.00000000E+00  0.00000000E+00  0.00000000E+00
  0.00000000E+00  0.00000000E+00  0.00000000E+00  0.00000000E+00  0.00000000E+00
  0.00000000E+00  0.00000000E+00  0.00000000E+00  0.00000000E+00  0.00000000E+00
  0.00000000E+00  0.00000000E+00  0.00000000E+00  0.00000000E+00  0.00000000E+00
  0.00000000E+00  0.00000000E+00  0.00000000E+00  0.00000000E+00  0.00000000E+00
  0.00000000E+00  0.00000000E+00  0.00000000E+00  0.00000000E+00  0.00000000E+00
  0.00000000E+00  0.00000000E+00  0.00000000E+00  0.00000000E+00  0.00000000E+00
  0.00000000E+00  0.00000000E+00  0.00000000E+00  0.00000000E+00  0.00000000E+00
  0.00000000E+00  0.00000000E+00  0.00000000E+00  0.00000000E+00  0.00000000E+00
  0.00000000E+00  0.00000000E+00  0.00000000E+00  0.00000000E+00  0.00000000E+00
  0.00000000E+00  0.00000000E+00
MO    5                     OCC NO =   1.00000000 ORB. ENERGY =  -0.37465664
  0.00000000E+00  0.00000000E+00  0.00000000E+00  0.00000000E+00  0.00000000E+00
  0.00000000E+00  0.00000000E+00  0.00000000E+00  0.00000000E+00  0.00000000E+00
  0.00000000E+00  0.00000000E+00  0.00000000E+00  0.00000000E+00  0.00000000E+00
  0.00000000E+00  0.00000000E+00  6.76073434E-01  0.00000000E+00  0.00000000E+00
  8.70965074E-01  0.00000000E+00  0.00000000E+00  9.57093643E-01  0.00000000E+00
  0.00000000E+00  8.94494567E-01  0.00000000E+00  0.00000000E+00  6.54713089E-01
  0.00000000E+00  0.00000000E+00  3.14323115E-01  0.00000000E+00  0.00000000E+00
  9.41526113E-02  0.00000000E+00  0.00000000E+00  1.34217740E-02  0.00000000E+00
  0.00000000E+00  0.00000000E+00  0.00000000E+00  0.00000000E+00  0.00000000E+00
  0.00000000E+00  0.00000000E+00  0.00000000E+00  0.00000000E+00  0.00000000E+00
  0.00000000E+00  0.00000000E+00  0.00000000E+00  0.00000000E+00  0.00000000E+00
  0.00000000E+00  0.00000000E+00  0.00000000E+00  0.00000000E+00  0.00000000E+00
  0.00000000E+00  0.00000000E+00  0.00000000E+00  0.00000000E+00  0.00000000E+00
  0.00000000E+00  0.00000000E+00  0.00000000E+00  0.00000000E+00  0.00000000E+00
  0.00000000E+00  0.00000000E+00  0.00000000E+00  0.00000000E+00  0.00000000E+00
  0.00000000E+00  0.00000000E+00  0.00000000E+00  0.00000000E+00  0.00000000E+00
  0.00000000E+00  0.00000000E+00  0.00000000E+00  0.00000000E+00  0.00000000E+00
  0.00000000E+00  0.00000000E+00  0.00000000E+00  0.00000000E+00  0.00000000E+00
  0.00000000E+00  0.00000000E+00
MO    7                     OCC NO =   1.00000000 ORB. ENERGY = -14.44725995
  3.07030126E-01  3.60661400E-01  5.25522321E-01  8.01695885E-01  1.20011628E+00
  1.67196879E+00  2.02919949E+00  1.93150269E+00 -9.15529423E-03 -3.56268109E-02
  1.12550529E+00  2.95266779E-01  8.19927934E-03 -8.54008693E-04  1.00649074E-04
  0.00000000E+00  0.00000000E+00  0.00000000E+00  0.00000000E+00  0.00000000E+00
  0.00000000E+00  0.00000000E+00  0.00000000E+00  0.00000000E+00  0.00000000E+00
  0.00000000E+00  0.00000000E+00  0.00000000E+00  0.00000000E+00  0.00000000E+00
  0.00000000E+00  0.00000000E+00  0.00000000E+00  0.00000000E+00  0.00000000E+00
  0.00000000E+00  0.00000000E+00  0.00000000E+00  0.00000000E+00  0.00000000E+00
  0.00000000E+00  0.00000000E+00  0.00000000E+00  0.00000000E+00  0.00000000E+00
  0.00000000E+00  0.00000000E+00  0.00000000E+00  0.00000000E+00  0.00000000E+00
  0.00000000E+00  0.00000000E+00  0.00000000E+00  0.00000000E+00  0.00000000E+00
  0.00000000E+00  0.00000000E+00  0.00000000E+00  0.00000000E+00  0.00000000E+00
  0.00000000E+00  0.00000000E+00  0.00000000E+00  0.00000000E+00  0.00000000E+00
  0.00000000E+00  0.00000000E+00  0.00000000E+00  0.00000000E+00  0.00000000E+00
  0.00000000E+00  0.00000000E+00  0.00000000E+00  0.00000000E+00  0.00000000E+00
  0.00000000E+00  0.00000000E+00  0.00000000E+00  0.00000000E+00  0.00000000E+00
  0.00000000E+00  0.00000000E+00  0.00000000E+00  0.00000000E+00  0.00000000E+00
  0.00000000E+00  0.00000000E+00  0.00000000E+00  0.00000000E+00  0.00000000E+00
  0.00000000E+00  0.00000000E+00
MO    8                     OCC NO =   1.00000000 ORB. ENERGY =  -0.61804674
 -6.83302643E-02 -8.02660282E-02 -1.16956207E-01 -1.78419272E-01 -2.67088653E-01
 -3.72100519E-01 -4.51603037E-01 -4.29860388E-01 -3.06102827E-02 -1.19116516E-01
 -4.53828786E-01 -1.44270692E-01  2.21162842E-01  1.84927923E-01  5.30077080E-02
  0.00000000E+00  0.00000000E+00  0.00000000E+00  0.00000000E+00  0.00000000E+00
  0.00000000E+00  0.00000000E+00  0.00000000E+00  0.00000000E+00  0.00000000E+00
  0.00000000E+00  0.00000000E+00  0.00000000E+00  0.00000000E+00  0.00000000E+00
  0.00000000E+00  0.00000000E+00  0.00000000E+00  0.00000000E+00  0.00000000E+00
  0.00000000E+00  0.00000000E+00  0.00000000E+00  0.00000000E+00  0.00000000E+00
  0.00000000E+00  0.00000000E+00  0.00000000E+00  0.00000000E+00  0.00000000E+00
  0.00000000E+00  0.00000000E+00  0.00000000E+00  0.00000000E+00  0.00000000E+00
  0.00000000E+00  0.00000000E+00  0.00000000E+00  0.00000000E+00  0.00000000E+00
  0.00000000E+00  0.00000000E+00  0.00000000E+00  0.00000000E+00  0.00000000E+00
  0.00000000E+00  0.00000000E+00  0.00000000E+00  0.00000000E+00  0.00000000E+00
  0.00000000E+00  0.00000000E+00  0.00000000E+00  0.00000000E+00  0.00000000E+00
  0.00000000E+00  0.00000000E+00  0.00000000E+00  0.00000000E+00  0.00000000E+00
  0.00000000E+00  0.00000000E+00  0.00000000E+00  0.00000000E+00  0.00000000E+00
  0.00000000E+00  0.00000000E+00  0.00000000E+00  0.00000000E+00  0.00000000E+00
  0.00000000E+00  0.00000000E+00  0.00000000E+00  0.00000000E+00  0.00000000E+00
  0.00000000E+00  0.00000000E+00
END DATA
SCF      ENERGY =     -54.576187018312   VIRIAL(-V/T)  =   2.00000000

$MOSPIN
 1 1 1 1 1 2 2
$END
