atomref-proatoms Na_q0_mult2_nist x2c-QZVPall
GAUSSIAN             11 MOL ORBITALS     99 PRIMITIVES        1 NUCLEI
  Na   1    (CENTRE  1)   0.00000000  0.00000000  0.00000000  CHARGE = 11.0
CENTRE ASSIGNMENTS    1  1  1  1  1  1  1  1  1  1  1  1  1  1  1  1  1  1  1  1
CENTRE ASSIGNMENTS    1  1  1  1  1  1  1  1  1  1  1  1  1  1  1  1  1  1  1  1
CENTRE ASSIGNMENTS    1  1  1  1  1  1  1  1  1  1  1  1  1  1  1  1  1  1  1  1
CENTRE ASSIGNMENTS    1  1  1  1  1  1  1  1  1  1  1  1  1  1  1  1  1  1  1  1
CENTRE ASSIGNMENTS    1  1  1  1  1  1  1  1  1  1  1  1  1  1  1  1  1  1  1
TYPE ASSIGNMENTS      1  1  1  1  1  1  1  1  1  1  1  1  1  1  1  1  1  1  1  1
TYPE ASSIGNMENTS      2  3  4  2  3  4  2  3  4  2  3  4  2  3  4  2  3  4  2  3
TYPE ASSIGNMENTS      4  2  3  4  2  3  4  2  3  4  2  3  4  2  3  4  2  3  4  5
TYPE ASSIGNMENTS      8  9  6 10  7  5  8  9  6 10  7  5  8  9  6 10  7  5  8  9
TYPE ASSIGNMENTS      6 10  7  5  8  9  6 10  7 11 14 15 17 20 18 12 16 19 13
EXPONENTS  3.8222952E+05 5.6867071E+04 1.2946116E+04 3.6640912E+03 1.1951555E+03
EXPONENTS  4.3116938E+02 1.6799243E+02 6.9389592E+01 2.9958053E+01 1.3420832E+01
EXPONENTS  1.2174979E+02 3.7044897E+01 1.3996238E+01 5.9948014E+00 2.4832750E+00
EXPONENTS  1.0451779E+00 4.3894332E-01 6.5640100E-02 3.0551316E-02 1.5509841E-02
EXPONENTS  6.9189961E+02 6.9189961E+02 6.9189961E+02 1.6376869E+02 1.6376869E+02
EXPONENTS  1.6376869E+02 5.2883442E+01 5.2883442E+01 5.2883442E+01 1.9812428E+01
EXPONENTS  1.9812428E+01 1.9812428E+01 8.1327431E+00 8.1327431E+00 8.1327431E+00
EXPONENTS  3.4970224E+00 3.4970224E+00 3.4970224E+00 1.5120219E+00 1.5120219E+00
EXPONENTS  1.5120219E+00 6.4464935E-01 6.4464935E-01 6.4464935E-01 1.4000000E+00
EXPONENTS  1.4000000E+00 1.4000000E+00 2.6276823E-01 2.6276823E-01 2.6276823E-01
EXPONENTS  1.1707085E-01 1.1707085E-01 1.1707085E-01 4.0508584E-02 4.0508584E-02
EXPONENTS  4.0508584E-02 1.5667979E-02 1.5667979E-02 1.5667979E-02 5.3000000E+00
EXPONENTS  5.3000000E+00 5.3000000E+00 5.3000000E+00 5.3000000E+00 5.3000000E+00
EXPONENTS  1.5900000E+00 1.5900000E+00 1.5900000E+00 1.5900000E+00 1.5900000E+00
EXPONENTS  1.5900000E+00 4.5000000E-01 4.5000000E-01 4.5000000E-01 4.5000000E-01
EXPONENTS  4.5000000E-01 4.5000000E-01 1.2000000E-01 1.2000000E-01 1.2000000E-01
EXPONENTS  1.2000000E-01 1.2000000E-01 1.2000000E-01 3.5000000E-02 3.5000000E-02
EXPONENTS  3.5000000E-02 3.5000000E-02 3.5000000E-02 3.5000000E-02 1.3500000E-01
EXPONENTS  1.3500000E-01 1.3500000E-01 1.3500000E-01 1.3500000E-01 1.3500000E-01
EXPONENTS  1.3500000E-01 1.3500000E-01 1.3500000E-01 1.3500000E-01
MO    1                     OCC NO =   1.00000000 ORB. ENERGY = -38.61892955
  8.10406839E-01  7.69998589E-01  9.72168077E-01  1.34753879E+00  1.94407499E+00
  2.75570691E+00  3.58889210E+00  4.00922400E+00  3.29077351E+00  1.49291908E+00
  1.32247794E-03  4.27183377E-03  5.63539937E-03  2.57433245E-01 -4.74365179E-03
  2.69812187E-03 -4.92964073E-04  4.81190929E-05 -2.68705409E-05  6.29616723E-06
  0.00000000E+00  0.00000000E+00  0.00000000E+00  0.00000000E+00  0.00000000E+00
  0.00000000E+00  0.00000000E+00  0.00000000E+00  0.00000000E+00  0.00000000E+00
  0.00000000E+00  0.00000000E+00  0.00000000E+00  0.00000000E+00  0.00000000E+00
  0.00000000E+00  0.00000000E+00  0.00000000E+00  0.00000000E+00  0.00000000E+00
  0.00000000E+00  0.00000000E+00  0.00000000E+00  0.00000000E+00  0.00000000E+00
  0.00000000E+00  0.00000000E+00  0.00000000E+00  0.00000000E+00  0.00000000E+00
  0.00000000E+00  0.00000000E+00  0.00000000E+00  0.00000000E+00  0.00000000E+00
  0.00000000E+00  0.00000000E+00  0.00000000E+00  0.00000000E+00  0.00000000E+00
  0.00000000E+00  0.00000000E+00  0.00000000E+00  0.00000000E+00  0.00000000E+00
  0.00000000E+00  0.00000000E+00  0.00000000E+00  0.00000000E+00  0.00000000E+00
  0.00000000E+00  0.00000000E+00  0.00000000E+00  0.00000000E+00  0.00000000E+00
  0.00000000E+00  0.00000000E+00  0.00000000E+00  0.00000000E+00  0.00000000E+00
  0.00000000E+00  0.00000000E+00  0.00000000E+00  0.00000000E+00  0.00000000E+00
  0.00000000E+00  0.00000000E+00  0.00000000E+00  0.00000000E+00  0.00000000E+00
  0.00000000E+00  0.00000000E+00  0.00000000E+00  0.00000000E+00  0.00000000E+00
  0.00000000E+00  0.00000000E+00  0.00000000E+00  0.00000000E+00
MO    2                     OCC NO =   1.00000000 ORB. ENERGY =  -2.27300334
 -2.03977040E-01 -1.93806401E-01 -2.44691872E-01 -3.39171586E-01 -4.89318010E-01
 -6.93603399E-01 -9.03313684E-01 -1.00911000E+00 -8.28278104E-01 -3.75763382E-01
 -1.10251418E-01 -3.56131258E-01 -4.69808044E-01 -3.01285419E-02  5.23214396E-01
  3.85824330E-01  9.08146216E-02  1.00011822E-03 -4.35534448E-04  9.37778641E-05
  0.00000000E+00  0.00000000E+00  0.00000000E+00  0.00000000E+00  0.00000000E+00
  0.00000000E+00  0.00000000E+00  0.00000000E+00  0.00000000E+00  0.00000000E+00
  0.00000000E+00  0.00000000E+00  0.00000000E+00  0.00000000E+00  0.00000000E+00
  0.00000000E+00  0.00000000E+00  0.00000000E+00  0.00000000E+00  0.00000000E+00
  0.00000000E+00  0.00000000E+00  0.00000000E+00  0.00000000E+00  0.00000000E+00
  0.00000000E+00  0.00000000E+00  0.00000000E+00  0.00000000E+00  0.00000000E+00
  0.00000000E+00  0.00000000E+00  0.00000000E+00  0.00000000E+00  0.00000000E+00
  0.00000000E+00  0.00000000E+00  0.00000000E+00  0.00000000E+00  0.00000000E+00
  0.00000000E+00  0.00000000E+00  0.00000000E+00  0.00000000E+00  0.00000000E+00
  0.00000000E+00  0.00000000E+00  0.00000000E+00  0.00000000E+00  0.00000000E+00
  0.00000000E+00  0.00000000E+00  0.00000000E+00  0.00000000E+00  0.00000000E+00
  0.00000000E+00  0.00000000E+00  0.00000000E+00  0.00000000E+00  0.00000000E+00
  0.00000000E+00  0.00000000E+00  0.00000000E+00  0.00000000E+00  0.00000000E+00
  0.00000000E+00  0.00000000E+00  0.00000000E+00  0.00000000E+00  0.00000000E+00
  0.00000000E+00  0.00000000E+00  0.00000000E+00  0.00000000E+00  0.00000000E+00
  0.00000000E+00  0.00000000E+00  0.00000000E+00  0.00000000E+00
MO    3                     OCC NO =   1.00000000 ORB. ENERGY =  -0.13230467
  3.52674532E-02  3.35089586E-02  4.23070124E-02  5.86424730E-02  8.46026594E-02
  1.19923426E-01  1.56182152E-01  1.74474243E-01  1.43208565E-01  6.49691628E-02
  2.02798808E-02  6.55075425E-02  8.64174927E-02  9.77507189E-03 -1.15386432E-01
 -9.87513653E-02 -5.41712287E-02  5.43017186E-02  2.13750965E-02  3.46341209E-03
  0.00000000E+00  0.00000000E+00  0.00000000E+00  0.00000000E+00  0.00000000E+00
  0.00000000E+00  0.00000000E+00  0.00000000E+00  0.00000000E+00  0.00000000E+00
  0.00000000E+00  0.00000000E+00  0.00000000E+00  0.00000000E+00  0.00000000E+00
  0.00000000E+00  0.00000000E+00  0.00000000E+00  0.00000000E+00  0.00000000E+00
  0.00000000E+00  0.00000000E+00  0.00000000E+00  0.00000000E+00  0.00000000E+00
  0.00000000E+00  0.00000000E+00  0.00000000E+00  0.00000000E+00  0.00000000E+00
  0.00000000E+00  0.00000000E+00  0.00000000E+00  0.00000000E+00  0.00000000E+00
  0.00000000E+00  0.00000000E+00  0.00000000E+00  0.00000000E+00  0.00000000E+00
  0.00000000E+00  0.00000000E+00  0.00000000E+00  0.00000000E+00  0.00000000E+00
  0.00000000E+00  0.00000000E+00  0.00000000E+00  0.00000000E+00  0.00000000E+00
  0.00000000E+00  0.00000000E+00  0.00000000E+00  0.00000000E+00  0.00000000E+00
  0.00000000E+00  0.00000000E+00  0.00000000E+00  0.00000000E+00  0.00000000E+00
  0.00000000E+00  0.00000000E+00  0.00000000E+00  0.00000000E+00  0.00000000E+00
  0.00000000E+00  0.00000000E+00  0.00000000E+00  0.00000000E+00  0.00000000E+00
  0.00000000E+00  0.00000000E+00  0.00000000E+00  0.00000000E+00  0.00000000E+00
  0.00000000E+00  0.00000000E+00  0.00000000E+00  0.00000000E+00
MO    4                     OCC NO =   1.00000000 ORB. ENERGY =  -1.17603214
  0.00000000E+00  0.00000000E+00  0.00000000E+00  0.00000000E+00  0.00000000E+00
  0.00000000E+00  0.00000000E+00  0.00000000E+00  0.00000000E+00  0.00000000E+00
  0.00000000E+00  0.00000000E+00  0.00000000E+00  0.00000000E+00  0.00000000E+00
  0.00000000E+00  0.00000000E+00  0.00000000E+00  0.00000000E+00  0.00000000E+00
  2.11019446E+00  0.00000000E+00  0.00000000E+00  2.74881916E+00  0.00000000E+00
  0.00000000E+00  3.38779270E+00  0.00000000E+00  0.00000000E+00  3.61095430E+00
  0.00000000E+00  0.00000000E+00  3.14487264E+00  0.00000000E+00  0.00000000E+00
  2.00052681E+00  0.00000000E+00  0.00000000E+00  8.77972297E-01  0.00000000E+00
  0.00000000E+00  2.34418318E-01  0.00000000E+00  0.00000000E+00 -3.74163643E-02
  0.00000000E+00  0.00000000E+00  2.31018060E-02  0.00000000E+00  0.00000000E+00
  6.81972332E-04  0.00000000E+00  0.00000000E+00 -3.42117131E-06  0.00000000E+00
  0.00000000E+00  1.06619758E-06  0.00000000E+00  0.00000000E+00  0.00000000E+00
  0.00000000E+00  0.00000000E+00  0.00000000E+00  0.00000000E+00  0.00000000E+00
  0.00000000E+00  0.00000000E+00  0.00000000E+00  0.00000000E+00  0.00000000E+00
  0.00000000E+00  0.00000000E+00  0.00000000E+00  0.00000000E+00  0.00000000E+00
  0.00000000E+00  0.00000000E+00  0.00000000E+00  0.00000000E+00  0.00000000E+00
  0.00000000E+00  0.00000000E+00  0.00000000E+00  0.00000000E+00  0.00000000E+00
  0.00000000E+00  0.00000000E+00  0.00000000E+00  0.00000000E+00  0.00000000E+00
  0.00000000E+00  0.00000000E+00  0.00000000E+00  0.00000000E+00  0.00000000E+00
  0.00000000E+00  0.00000000E+00  0.00000000E+00  0.00000000E+00
MO    5                     OCC NO =   1.00000000 ORB. ENERGY =  -1.17603214
  0.00000000E+00  0.00000000E+00  0.00000000E+00  0.00000000E+00  0.00000000E+00
  0.00000000E+00  0.00000000E+00  0.00000000E+00  0.00000000E+00  0.00000000E+00
  0.00000000E+00  0.00000000E+00  0.00000000E+00  0.00000000E+00  0.00000000E+00
  0.00000000E+00  0.00000000E+00  0.00000000E+00  0.00000000E+00  0.00000000E+00
  0.00000000E+00  2.11019446E+00  0.00000000E+00  0.00000000E+00  2.74881916E+00
  0.00000000E+00  0.00000000E+00  3.38779270E+00  0.00000000E+00  0.00000000E+00
  3.61095430E+00  0.00000000E+00  0.00000000E+00  3.14487264E+00  0.00000000E+00
  0.00000000E+00  2.00052681E+00  0.00000000E+00  0.00000000E+00  8.77972297E-01
  0.00000000E+00  0.00000000E+00  2.34418318E-01  0.00000000E+00  0.00000000E+00
 -3.74163643E-02  0.00000000E+00  0.00000000E+00  2.31018060E-02  0.00000000E+00
  0.00000000E+00  6.81972332E-04  0.00000000E+00  0.00000000E+00 -3.42117131E-06
  0.00000000E+00  0.00000000E+00  1.06619758E-06  0.00000000E+00  0.00000000E+00
  0.00000000E+00  0.00000000E+00  0.00000000E+00  0.00000000E+00  0.00000000E+00
  0.00000000E+00  0.00000000E+00  0.00000000E+00  0.00000000E+00  0.00000000E+00
  0.00000000E+00  0.00000000E+00  0.00000000E+00  0.00000000E+00  0.00000000E+00
  0.00000000E+00  0.00000000E+00  0.00000000E+00  0.00000000E+00  0.00000000E+00
  0.00000000E+00  0.00000000E+00  0.00000000E+00  0.00000000E+00  0.00000000E+00
  0.00000000E+00  0.00000000E+00  0.00000000E+00  0.00000000E+00  0.00000000E+00
  0.00000000E+00  0.00000000E+00  0.00000000E+00  0.00000000E+00  0.00000000E+00
  0.00000000E+00  0.00000000E+00  0.00000000E+00  0.00000000E+00
MO    6                     OCC NO =   1.00000000 ORB. ENERGY =  -1.17603214
  0.00000000E+00  0.00000000E+00  0.00000000E+00  0.00000000E+00  0.00000000E+00
  0.00000000E+00  0.00000000E+00  0.00000000E+00  0.00000000E+00  0.00000000E+00
  0.00000000E+00  0.00000000E+00  0.00000000E+00  0.00000000E+00  0.00000000E+00
  0.00000000E+00  0.00000000E+00  0.00000000E+00  0.00000000E+00  0.00000000E+00
  0.00000000E+00  0.00000000E+00  2.11019446E+00  0.00000000E+00  0.00000000E+00
  2.74881916E+00  0.00000000E+00  0.00000000E+00  3.38779270E+00  0.00000000E+00
  0.00000000E+00  3.61095430E+00  0.00000000E+00  0.00000000E+00  3.14487264E+00
  0.00000000E+00  0.00000000E+00  2.00052681E+00  0.00000000E+00  0.00000000E+00
  8.77972297E-01  0.00000000E+00  0.00000000E+00  2.34418318E-01  0.00000000E+00
  0.00000000E+00 -3.74163643E-02  0.00000000E+00  0.00000000E+00  2.31018060E-02
  0.00000000E+00  0.00000000E+00  6.81972332E-04  0.00000000E+00  0.00000000E+00
 -3.42117131E-06  0.00000000E+00  0.00000000E+00  1.06619758E-06  0.00000000E+00
  0.00000000E+00  0.00000000E+00  0.00000000E+00  0.00000000E+00  0.00000000E+00
  0.00000000E+00  0.00000000E+00  0.00000000E+00  0.00000000E+00  0.00000000E+00
  0.00000000E+00  0.00000000E+00  0.00000000E+00  0.00000000E+00  0.00000000E+00
  0.00000000E+00  0.00000000E+00  0.00000000E+00  0.00000000E+00  0.00000000E+00
  0.00000000E+00  0.00000000E+00  0.00000000E+00  0.00000000E+00  0.00000000E+00
  0.00000000E+00  0.00000000E+00  0.00000000E+00  0.00000000E+00  0.00000000E+00
  0.00000000E+00  0.00000000E+00  0.00000000E+00  0.00000000E+00  0.00000000E+00
  0.00000000E+00  0.00000000E+00  0.00000000E+00  0.00000000E+00
MO    8                     OCC NO =   1.00000000 ORB. ENERGY = -38.61737184
  8.10354879E-01  7.69949220E-01  9.72105745E-01  1.34745239E+00  1.94395034E+00
  2.75553022E+00  3.58866200E+00  4.00896695E+00  3.29056252E+00  1.49282336E+00
  1.36705846E-03  4.41583662E-03  5.82536781E-03  2.57493498E-01 -4.76252407E-03
  2.70633079E-03 -4.94741648E-04  4.82370787E-05 -2.69443538E-05  6.31480826E-06
  0.00000000E+00  0.00000000E+00  0.00000000E+00  0.00000000E+00  0.00000000E+00
  0.00000000E+00  0.00000000E+00  0.00000000E+00  0.00000000E+00  0.00000000E+00
  0.00000000E+00  0.00000000E+00  0.00000000E+00  0.00000000E+00  0.00000000E+00
  0.00000000E+00  0.00000000E+00  0.00000000E+00  0.00000000E+00  0.00000000E+00
  0.00000000E+00  0.00000000E+00  0.00000000E+00  0.00000000E+00  0.00000000E+00
  0.00000000E+00  0.00000000E+00  0.00000000E+00  0.00000000E+00  0.00000000E+00
  0.00000000E+00  0.00000000E+00  0.00000000E+00  0.00000000E+00  0.00000000E+00
  0.00000000E+00  0.00000000E+00  0.00000000E+00  0.00000000E+00  0.00000000E+00
  0.00000000E+00  0.00000000E+00  0.00000000E+00  0.00000000E+00  0.00000000E+00
  0.00000000E+00  0.00000000E+00  0.00000000E+00  0.00000000E+00  0.00000000E+00
  0.00000000E+00  0.00000000E+00  0.00000000E+00  0.00000000E+00  0.00000000E+00
  0.00000000E+00  0.00000000E+00  0.00000000E+00  0.00000000E+00  0.00000000E+00
  0.00000000E+00  0.00000000E+00  0.00000000E+00  0.00000000E+00  0.00000000E+00
  0.00000000E+00  0.00000000E+00  0.00000000E+00  0.00000000E+00  0.00000000E+00
  0.00000000E+00  0.00000000E+00  0.00000000E+00  0.00000000E+00  0.00000000E+00
  0.00000000E+00  0.00000000E+00  0.00000000E+00  0.00000000E+00
MO    9                     OCC NO =   1.00000000 ORB. ENERGY =  -2.26920100
 -2.03943853E-01 -1.93774869E-01 -2.44652061E-01 -3.39116404E-01 -4.89238399E-01
 -6.93490552E-01 -9.03166718E-01 -1.00894582E+00 -8.28143345E-01 -3.75702247E-01
 -1.10233207E-01 -3.56072435E-01 -4.69730444E-01 -2.97283819E-02  5.21417119E-01
  3.87546042E-01  9.02574600E-02  9.99895409E-04 -4.44009755E-04  9.64777941E-05
  0.00000000E+00  0.00000000E+00  0.00000000E+00  0.00000000E+00  0.00000000E+00
  0.00000000E+00  0.00000000E+00  0.00000000E+00  0.00000000E+00  0.00000000E+00
  0.00000000E+00  0.00000000E+00  0.00000000E+00  0.00000000E+00  0.00000000E+00
  0.00000000E+00  0.00000000E+00  0.00000000E+00  0.00000000E+00  0.00000000E+00
  0.00000000E+00  0.00000000E+00  0.00000000E+00  0.00000000E+00  0.00000000E+00
  0.00000000E+00  0.00000000E+00  0.00000000E+00  0.00000000E+00  0.00000000E+00
  0.00000000E+00  0.00000000E+00  0.00000000E+00  0.00000000E+00  0.00000000E+00
  0.00000000E+00  0.00000000E+00  0.00000000E+00  0.00000000E+00  0.00000000E+00
  0.00000000E+00  0.00000000E+00  0.00000000E+00  0.00000000E+00  0.00000000E+00
  0.00000000E+00  0.00000000E+00  0.00000000E+00  0.00000000E+00  0.00000000E+00
  0.00000000E+00  0.00000000E+00  0.00000000E+00  0.00000000E+00  0.00000000E+00
  0.00000000E+00  0.00000000E+00  0.00000000E+00  0.00000000E+00  0.00000000E+00
  0.00000000E+00  0.00000000E+00  0.00000000E+00  0.00000000E+00  0.00000000E+00
  0.00000000E+00  0.00000000E+00  0.00000000E+00  0.00000000E+00  0.00000000E+00
  0.00000000E+00  0.00000000E+00  0.00000000E+00  0.00000000E+00  0.00000000E+00
  0.00000000E+00  0.00000000E+00  0.00000000E+00  0.00000000E+00
MO   10                     OCC NO =   1.00000000 ORB. ENERGY =  -1.17321598
  0.00000000E+00  0.00000000E+00  0.00000000E+00  0.00000000E+00  0.00000000E+00
  0.00000000E+00  0.00000000E+00  0.00000000E+00  0.00000000E+00  0.00000000E+00
  0.00000000E+00  0.00000000E+00  0.00000000E+00  0.00000000E+00  0.00000000E+00
  0.00000000E+00  0.00000000E+00  0.00000000E+00  0.00000000E+00  0.00000000E+00
  2.11262686E+00  0.00000000E+00  0.00000000E+00  2.75198768E+00  0.00000000E+00
  0.00000000E+00  3.39169776E+00  0.00000000E+00  0.00000000E+00  3.61511659E+00
  0.00000000E+00  0.00000000E+00  3.14849769E+00  0.00000000E+00  0.00000000E+00
  2.00283279E+00  0.00000000E+00  0.00000000E+00  8.78984324E-01  0.00000000E+00
  0.00000000E+00  2.34688529E-01  0.00000000E+00  0.00000000E+00 -3.62765479E-02
  0.00000000E+00  0.00000000E+00  2.25319018E-02  0.00000000E+00  0.00000000E+00
  5.43041086E-04  0.00000000E+00  0.00000000E+00 -1.95420350E-05  0.00000000E+00
  0.00000000E+00  2.37468929E-06  0.00000000E+00  0.00000000E+00  0.00000000E+00
  0.00000000E+00  0.00000000E+00  0.00000000E+00  0.00000000E+00  0.00000000E+00
  0.00000000E+00  0.00000000E+00  0.00000000E+00  0.00000000E+00  0.00000000E+00
  0.00000000E+00  0.00000000E+00  0.00000000E+00  0.00000000E+00  0.00000000E+00
  0.00000000E+00  0.00000000E+00  0.00000000E+00  0.00000000E+00  0.00000000E+00
  0.00000000E+00  0.00000000E+00  0.00000000E+00  0.00000000E+00  0.00000000E+00
  0.00000000E+00  0.00000000E+00  0.00000000E+00  0.00000000E+00  0.00000000E+00
  0.00000000E+00  0.00000000E+00  0.00000000E+00  0.00000000E+00  0.00000000E+00
  0.00000000E+00  0.00000000E+00  0.00000000E+00  0.00000000E+00
MO   11                    OCC NO =   1.00000000 ORB. ENERGY =  -1.17321598
  0.00000000E+00  0.00000000E+00  0.00000000E+00  0.00000000E+00  0.00000000E+00
  0.00000000E+00  0.00000000E+00  0.00000000E+00  0.00000000E+00  0.00000000E+00
  0.00000000E+00  0.00000000E+00  0.00000000E+00  0.00000000E+00  0.00000000E+00
  0.00000000E+00  0.00000000E+00  0.00000000E+00  0.00000000E+00  0.00000000E+00
  0.00000000E+00  2.11262686E+00  0.00000000E+00  0.00000000E+00  2.75198768E+00
  0.00000000E+00  0.00000000E+00  3.39169776E+00  0.00000000E+00  0.00000000E+00
  3.61511659E+00  0.00000000E+00  0.00000000E+00  3.14849769E+00  0.00000000E+00
  0.00000000E+00  2.00283279E+00  0.00000000E+00  0.00000000E+00  8.78984324E-01
  0.00000000E+00  0.00000000E+00  2.34688529E-01  0.00000000E+00  0.00000000E+00
 -3.62765479E-02  0.00000000E+00  0.00000000E+00  2.25319018E-02  0.00000000E+00
  0.00000000E+00  5.43041086E-04  0.00000000E+00  0.00000000E+00 -1.95420350E-05
  0.00000000E+00  0.00000000E+00  2.37468929E-06  0.00000000E+00  0.00000000E+00
  0.00000000E+00  0.00000000E+00  0.00000000E+00  0.00000000E+00  0.00000000E+00
  0.00000000E+00  0.00000000E+00  0.00000000E+00  0.00000000E+00  0.00000000E+00
  0.00000000E+00  0.00000000E+00  0.00000000E+00  0.00000000E+00  0.00000000E+00
  0.00000000E+00  0.00000000E+00  0.00000000E+00  0.00000000E+00  0.00000000E+00
  0.00000000E+00  0.00000000E+00  0.00000000E+00  0.00000000E+00  0.00000000E+00
  0.00000000E+00  0.00000000E+00  0.00000000E+00  0.00000000E+00  0.00000000E+00
  0.00000000E+00  0.00000000E+00  0.00000000E+00  0.00000000E+00  0.00000000E+00
  0.00000000E+00  0.00000000E+00  0.00000000E+00  0.00000000E+00
MO   12                    OCC NO =   1.00000000 ORB. ENERGY =  -1.17321598
  0.00000000E+00  0.00000000E+00  0.00000000E+00  0.00000000E+00  0.00000000E+00
  0.00000000E+00  0.00000000E+00  0.00000000E+00  0.00000000E+00  0.00000000E+00
  0.00000000E+00  0.00000000E+00  0.00000000E+00  0.00000000E+00  0.00000000E+00
  0.00000000E+00  0.00000000E+00  0.00000000E+00  0.00000000E+00  0.00000000E+00
  0.00000000E+00  0.00000000E+00  2.11262686E+00  0.00000000E+00  0.00000000E+00
  2.75198768E+00  0.00000000E+00  0.00000000E+00  3.39169776E+00  0.00000000E+00
  0.00000000E+00  3.61511659E+00  0.00000000E+00  0.00000000E+00  3.14849769E+00
  0.00000000E+00  0.00000000E+00  2.00283279E+00  0.00000000E+00  0.00000000E+00
  8.78984324E-01  0.00000000E+00  0.00000000E+00  2.34688529E-01  0.00000000E+00
  0.00000000E+00 -3.62765479E-02  0.00000000E+00  0.00000000E+00  2.25319018E-02
  0.00000000E+00  0.00000000E+00  5.43041086E-04  0.00000000E+00  0.00000000E+00
 -1.95420350E-05  0.00000000E+00  0.00000000E+00  2.37468929E-06  0.00000000E+00
  0.00000000E+00  0.00000000E+00  0.00000000E+00  0.00000000E+00  0.00000000E+00
  0.00000000E+00  0.00000000E+00  0.00000000E+00  0.00000000E+00  0.00000000E+00
  0.00000000E+00  0.00000000E+00  0.00000000E+00  0.00000000E+00  0.00000000E+00
  0.00000000E+00  0.00000000E+00  0.00000000E+00  0.00000000E+00  0.00000000E+00
  0.00000000E+00  0.00000000E+00  0.00000000E+00  0.00000000E+00  0.00000000E+00
  0.00000000E+00  0.00000000E+00  0.00000000E+00  0.00000000E+00  0.00000000E+00
  0.00000000E+00  0.00000000E+00  0.00000000E+00  0.00000000E+00  0.00000000E+00
  0.00000000E+00  0.00000000E+00  0.00000000E+00  0.00000000E+00
END DATA
SCF      ENERGY =    -162.396209114114   VIRIAL(-V/T)  =   2.00000000

$MOSPIN
 1 1 1 1 1 1 2 2 2 2 2
$END
