atomref-proatoms Nb_q0_mult6_nist x2c-QZVPall
GAUSSIAN             42 MOL ORBITALS    234 PRIMITIVES        1 NUCLEI
  Nb   1    (CENTRE  1)   0.00000000  0.00000000  0.00000000  CHARGE = 41.0
CENTRE ASSIGNMENTS    1  1  1  1  1  1  1  1  1  1  1  1  1  1  1  1  1  1  1  1
CENTRE ASSIGNMENTS    1  1  1  1  1  1  1  1  1  1  1  1  1  1  1  1  1  1  1  1
CENTRE ASSIGNMENTS    1  1  1  1  1  1  1  1  1  1  1  1  1  1  1  1  1  1  1  1
CENTRE ASSIGNMENTS    1  1  1  1  1  1  1  1  1  1  1  1  1  1  1  1  1  1  1  1
CENTRE ASSIGNMENTS    1  1  1  1  1  1  1  1  1  1  1  1  1  1  1  1  1  1  1  1
CENTRE ASSIGNMENTS    1  1  1  1  1  1  1  1  1  1  1  1  1  1  1  1  1  1  1  1
CENTRE ASSIGNMENTS    1  1  1  1  1  1  1  1  1  1  1  1  1  1  1  1  1  1  1  1
CENTRE ASSIGNMENTS    1  1  1  1  1  1  1  1  1  1  1  1  1  1  1  1  1  1  1  1
CENTRE ASSIGNMENTS    1  1  1  1  1  1  1  1  1  1  1  1  1  1  1  1  1  1  1  1
CENTRE ASSIGNMENTS    1  1  1  1  1  1  1  1  1  1  1  1  1  1  1  1  1  1  1  1
CENTRE ASSIGNMENTS    1  1  1  1  1  1  1  1  1  1  1  1  1  1  1  1  1  1  1  1
CENTRE ASSIGNMENTS    1  1  1  1  1  1  1  1  1  1  1  1  1  1
TYPE ASSIGNMENTS      1  1  1  1  1  1  1  1  1  1  1  1  1  1  1  1  1  1  1  1
TYPE ASSIGNMENTS      1  1  1  1  1  1  1  2  3  4  2  3  4  2  3  4  2  3  4  2
TYPE ASSIGNMENTS      3  4  2  3  4  2  3  4  2  3  4  2  3  4  2  3  4  2  3  4
TYPE ASSIGNMENTS      2  3  4  2  3  4  2  3  4  2  3  4  2  3  4  2  3  4  2  3
TYPE ASSIGNMENTS      4  2  3  4  2  3  4  2  3  4  2  3  4  2  3  4  2  3  4  2
TYPE ASSIGNMENTS      3  4  2  3  4  5  8  9  6 10  7  5  8  9  6 10  7  5  8  9
TYPE ASSIGNMENTS      6 10  7  5  8  9  6 10  7  5  8  9  6 10  7  5  8  9  6 10
TYPE ASSIGNMENTS      7  5  8  9  6 10  7  5  8  9  6 10  7  5  8  9  6 10  7  5
TYPE ASSIGNMENTS      8  9  6 10  7  5  8  9  6 10  7  5  8  9  6 10  7  5  8  9
TYPE ASSIGNMENTS      6 10  7  5  8  9  6 10  7 11 14 15 17 20 18 12 16 19 13 11
TYPE ASSIGNMENTS     14 15 17 20 18 12 16 19 13 11 14 15 17 20 18 12 16 19 13 21
TYPE ASSIGNMENTS     24 25 30 33 31 26 34 35 28 22 27 32 29 23
EXPONENTS  4.1598809E+07 9.3645979E+06 2.2978616E+06 6.1458946E+05 1.7917311E+05
EXPONENTS  5.6936016E+04 1.9720949E+04 7.4455200E+03 3.0641855E+03 1.3329033E+03
EXPONENTS  6.0804500E+02 2.8730337E+02 4.6713749E+03 1.4746629E+03 5.6121503E+02
EXPONENTS  2.4459278E+02 1.3272920E+02 5.3441302E+01 2.5654251E+01 1.1550095E+01
EXPONENTS  5.9468509E+00 2.9296760E+00 8.9870882E-01 3.6905910E-01 1.1006746E-01
EXPONENTS  4.8002102E-02 2.3199840E-02 2.9257115E+05 2.9257115E+05 2.9257115E+05
EXPONENTS  7.3023503E+04 7.3023503E+04 7.3023503E+04 2.0121618E+04 2.0121618E+04
EXPONENTS  2.0121618E+04 6.1211386E+03 6.1211386E+03 6.1211386E+03 2.0557514E+03
EXPONENTS  2.0557514E+03 2.0557514E+03 7.6221600E+02 7.6221600E+02 7.6221600E+02
EXPONENTS  3.1234560E+02 3.1234560E+02 3.1234560E+02 1.3551224E+02 1.3551224E+02
EXPONENTS  1.3551224E+02 6.1601219E+01 6.1601219E+01 6.1601219E+01 2.9111544E+01
EXPONENTS  2.9111544E+01 2.9111544E+01 1.3625796E+01 1.3625796E+01 1.3625796E+01
EXPONENTS  5.0800000E+01 5.0800000E+01 5.0800000E+01 1.9469642E+02 1.9469642E+02
EXPONENTS  1.9469642E+02 6.9679427E+01 6.9679427E+01 6.9679427E+01 1.5674134E+01
EXPONENTS  1.5674134E+01 1.5674134E+01 8.0229666E+00 8.0229666E+00 8.0229666E+00
EXPONENTS  3.9923708E+00 3.9923708E+00 3.9923708E+00 8.9494005E-01 8.9494005E-01
EXPONENTS  8.9494005E-01 5.5405713E+00 5.5405713E+00 5.5405713E+00 2.8516757E+00
EXPONENTS  2.8516757E+00 2.8516757E+00 1.5277506E+00 1.5277506E+00 1.5277506E+00
EXPONENTS  8.2951218E-01 8.2951218E-01 8.2951218E-01 4.4251888E-01 4.4251888E-01
EXPONENTS  4.4251888E-01 1.9677864E-01 1.9677864E-01 1.9677864E-01 6.0000000E-02
EXPONENTS  6.0000000E-02 6.0000000E-02 2.0600000E-02 2.0600000E-02 2.0600000E-02
EXPONENTS  1.4575440E+03 1.4575440E+03 1.4575440E+03 1.4575440E+03 1.4575440E+03
EXPONENTS  1.4575440E+03 4.0494427E+02 4.0494427E+02 4.0494427E+02 4.0494427E+02
EXPONENTS  4.0494427E+02 4.0494427E+02 1.4780482E+02 1.4780482E+02 1.4780482E+02
EXPONENTS  1.4780482E+02 1.4780482E+02 1.4780482E+02 6.2596123E+01 6.2596123E+01
EXPONENTS  6.2596123E+01 6.2596123E+01 6.2596123E+01 6.2596123E+01 2.8898385E+01
EXPONENTS  2.8898385E+01 2.8898385E+01 2.8898385E+01 2.8898385E+01 2.8898385E+01
EXPONENTS  1.4024784E+01 1.4024784E+01 1.4024784E+01 1.4024784E+01 1.4024784E+01
EXPONENTS  1.4024784E+01 6.8516980E+00 6.8516980E+00 6.8516980E+00 6.8516980E+00
EXPONENTS  6.8516980E+00 6.8516980E+00 7.6085794E+00 7.6085794E+00 7.6085794E+00
EXPONENTS  7.6085794E+00 7.6085794E+00 7.6085794E+00 3.3985591E+00 3.3985591E+00
EXPONENTS  3.3985591E+00 3.3985591E+00 3.3985591E+00 3.3985591E+00 1.6049661E+00
EXPONENTS  1.6049661E+00 1.6049661E+00 1.6049661E+00 1.6049661E+00 1.6049661E+00
EXPONENTS  7.0805338E-01 7.0805338E-01 7.0805338E-01 7.0805338E-01 7.0805338E-01
EXPONENTS  7.0805338E-01 2.9229258E-01 2.9229258E-01 2.9229258E-01 2.9229258E-01
EXPONENTS  2.9229258E-01 2.9229258E-01 1.1322281E-01 1.1322281E-01 1.1322281E-01
EXPONENTS  1.1322281E-01 1.1322281E-01 1.1322281E-01 4.0636113E-02 4.0636113E-02
EXPONENTS  4.0636113E-02 4.0636113E-02 4.0636113E-02 4.0636113E-02 1.5360500E+00
EXPONENTS  1.5360500E+00 1.5360500E+00 1.5360500E+00 1.5360500E+00 1.5360500E+00
EXPONENTS  1.5360500E+00 1.5360500E+00 1.5360500E+00 1.5360500E+00 5.2270000E-01
EXPONENTS  5.2270000E-01 5.2270000E-01 5.2270000E-01 5.2270000E-01 5.2270000E-01
EXPONENTS  5.2270000E-01 5.2270000E-01 5.2270000E-01 5.2270000E-01 1.7787000E-01
EXPONENTS  1.7787000E-01 1.7787000E-01 1.7787000E-01 1.7787000E-01 1.7787000E-01
EXPONENTS  1.7787000E-01 1.7787000E-01 1.7787000E-01 1.7787000E-01 6.7947000E-01
EXPONENTS  6.7947000E-01 6.7947000E-01 6.7947000E-01 6.7947000E-01 6.7947000E-01
EXPONENTS  6.7947000E-01 6.7947000E-01 6.7947000E-01 6.7947000E-01 6.7947000E-01
EXPONENTS  6.7947000E-01 6.7947000E-01 6.7947000E-01 6.7947000E-01
MO    1                     OCC NO =   1.00000000 ORB. ENERGY = -693.01497866
  2.63292457E+01  2.04206345E+01  1.96474613E+01  1.80301929E+01  1.79063642E+01
  1.87084476E+01  2.09081498E+01  2.35809114E+01  2.66861680E+01  2.84575217E+01
  2.49164547E+01  1.48220045E+01  1.48740882E-01  6.11273982E-01  1.36502900E+00
  1.61270589E+00  4.78799048E+00  2.11516750E-01 -8.65045953E-03 -3.59798903E-04
  5.79306636E-04 -2.04195940E-04  3.26455479E-05 -9.54801274E-06  2.14748999E-06
 -8.21294303E-07  1.67699654E-07  0.00000000E+00  0.00000000E+00  0.00000000E+00
  0.00000000E+00  0.00000000E+00  0.00000000E+00  0.00000000E+00  0.00000000E+00
  0.00000000E+00  0.00000000E+00  0.00000000E+00  0.00000000E+00  0.00000000E+00
  0.00000000E+00  0.00000000E+00  0.00000000E+00  0.00000000E+00  0.00000000E+00
  0.00000000E+00  0.00000000E+00  0.00000000E+00  0.00000000E+00  0.00000000E+00
  0.00000000E+00  0.00000000E+00  0.00000000E+00  0.00000000E+00  0.00000000E+00
  0.00000000E+00  0.00000000E+00  0.00000000E+00  0.00000000E+00  0.00000000E+00
  0.00000000E+00  0.00000000E+00  0.00000000E+00  0.00000000E+00  0.00000000E+00
  0.00000000E+00  0.00000000E+00  0.00000000E+00  0.00000000E+00  0.00000000E+00
  0.00000000E+00  0.00000000E+00  0.00000000E+00  0.00000000E+00  0.00000000E+00
  0.00000000E+00  0.00000000E+00  0.00000000E+00  0.00000000E+00  0.00000000E+00
  0.00000000E+00  0.00000000E+00  0.00000000E+00  0.00000000E+00  0.00000000E+00
  0.00000000E+00  0.00000000E+00  0.00000000E+00  0.00000000E+00  0.00000000E+00
  0.00000000E+00  0.00000000E+00  0.00000000E+00  0.00000000E+00  0.00000000E+00
  0.00000000E+00  0.00000000E+00  0.00000000E+00  0.00000000E+00  0.00000000E+00
  0.00000000E+00  0.00000000E+00  0.00000000E+00  0.00000000E+00  0.00000000E+00
  0.00000000E+00  0.00000000E+00  0.00000000E+00  0.00000000E+00  0.00000000E+00
  0.00000000E+00  0.00000000E+00  0.00000000E+00  0.00000000E+00  0.00000000E+00
  0.00000000E+00  0.00000000E+00  0.00000000E+00  0.00000000E+00  0.00000000E+00
  0.00000000E+00  0.00000000E+00  0.00000000E+00  0.00000000E+00  0.00000000E+00
  0.00000000E+00  0.00000000E+00  0.00000000E+00  0.00000000E+00  0.00000000E+00
  0.00000000E+00  0.00000000E+00  0.00000000E+00  0.00000000E+00  0.00000000E+00
  0.00000000E+00  0.00000000E+00  0.00000000E+00  0.00000000E+00  0.00000000E+00
  0.00000000E+00  0.00000000E+00  0.00000000E+00  0.00000000E+00  0.00000000E+00
  0.00000000E+00  0.00000000E+00  0.00000000E+00  0.00000000E+00  0.00000000E+00
  0.00000000E+00  0.00000000E+00  0.00000000E+00  0.00000000E+00  0.00000000E+00
  0.00000000E+00  0.00000000E+00  0.00000000E+00  0.00000000E+00  0.00000000E+00
  0.00000000E+00  0.00000000E+00  0.00000000E+00  0.00000000E+00  0.00000000E+00
  0.00000000E+00  0.00000000E+00  0.00000000E+00  0.00000000E+00  0.00000000E+00
  0.00000000E+00  0.00000000E+00  0.00000000E+00  0.00000000E+00  0.00000000E+00
  0.00000000E+00  0.00000000E+00  0.00000000E+00  0.00000000E+00  0.00000000E+00
  0.00000000E+00  0.00000000E+00  0.00000000E+00  0.00000000E+00  0.00000000E+00
  0.00000000E+00  0.00000000E+00  0.00000000E+00  0.00000000E+00  0.00000000E+00
  0.00000000E+00  0.00000000E+00  0.00000000E+00  0.00000000E+00  0.00000000E+00
  0.00000000E+00  0.00000000E+00  0.00000000E+00  0.00000000E+00  0.00000000E+00
  0.00000000E+00  0.00000000E+00  0.00000000E+00  0.00000000E+00  0.00000000E+00
  0.00000000E+00  0.00000000E+00  0.00000000E+00  0.00000000E+00  0.00000000E+00
  0.00000000E+00  0.00000000E+00  0.00000000E+00  0.00000000E+00  0.00000000E+00
  0.00000000E+00  0.00000000E+00  0.00000000E+00  0.00000000E+00  0.00000000E+00
  0.00000000E+00  0.00000000E+00  0.00000000E+00  0.00000000E+00  0.00000000E+00
  0.00000000E+00  0.00000000E+00  0.00000000E+00  0.00000000E+00  0.00000000E+00
  0.00000000E+00  0.00000000E+00  0.00000000E+00  0.00000000E+00
MO    2                     OCC NO =   1.00000000 ORB. ENERGY = -97.63076215
 -8.96291708E+00 -6.95152670E+00 -6.68832557E+00 -6.13778025E+00 -6.09562689E+00
 -6.36866954E+00 -7.11748509E+00 -8.02733797E+00 -9.08441942E+00 -9.68741798E+00
 -8.48197932E+00 -5.04565908E+00 -4.41157365E-01 -1.81300538E+00 -4.04860174E+00
 -4.78319793E+00 -1.80282692E+00  5.86210289E+00  4.75899320E+00  7.53648780E-01
 -3.69253206E-02  9.52074487E-03 -1.13083894E-03  3.10486104E-04 -6.84327907E-05
  2.60565882E-05 -5.31353204E-06  0.00000000E+00  0.00000000E+00  0.00000000E+00
  0.00000000E+00  0.00000000E+00  0.00000000E+00  0.00000000E+00  0.00000000E+00
  0.00000000E+00  0.00000000E+00  0.00000000E+00  0.00000000E+00  0.00000000E+00
  0.00000000E+00  0.00000000E+00  0.00000000E+00  0.00000000E+00  0.00000000E+00
  0.00000000E+00  0.00000000E+00  0.00000000E+00  0.00000000E+00  0.00000000E+00
  0.00000000E+00  0.00000000E+00  0.00000000E+00  0.00000000E+00  0.00000000E+00
  0.00000000E+00  0.00000000E+00  0.00000000E+00  0.00000000E+00  0.00000000E+00
  0.00000000E+00  0.00000000E+00  0.00000000E+00  0.00000000E+00  0.00000000E+00
  0.00000000E+00  0.00000000E+00  0.00000000E+00  0.00000000E+00  0.00000000E+00
  0.00000000E+00  0.00000000E+00  0.00000000E+00  0.00000000E+00  0.00000000E+00
  0.00000000E+00  0.00000000E+00  0.00000000E+00  0.00000000E+00  0.00000000E+00
  0.00000000E+00  0.00000000E+00  0.00000000E+00  0.00000000E+00  0.00000000E+00
  0.00000000E+00  0.00000000E+00  0.00000000E+00  0.00000000E+00  0.00000000E+00
  0.00000000E+00  0.00000000E+00  0.00000000E+00  0.00000000E+00  0.00000000E+00
  0.00000000E+00  0.00000000E+00  0.00000000E+00  0.00000000E+00  0.00000000E+00
  0.00000000E+00  0.00000000E+00  0.00000000E+00  0.00000000E+00  0.00000000E+00
  0.00000000E+00  0.00000000E+00  0.00000000E+00  0.00000000E+00  0.00000000E+00
  0.00000000E+00  0.00000000E+00  0.00000000E+00  0.00000000E+00  0.00000000E+00
  0.00000000E+00  0.00000000E+00  0.00000000E+00  0.00000000E+00  0.00000000E+00
  0.00000000E+00  0.00000000E+00  0.00000000E+00  0.00000000E+00  0.00000000E+00
  0.00000000E+00  0.00000000E+00  0.00000000E+00  0.00000000E+00  0.00000000E+00
  0.00000000E+00  0.00000000E+00  0.00000000E+00  0.00000000E+00  0.00000000E+00
  0.00000000E+00  0.00000000E+00  0.00000000E+00  0.00000000E+00  0.00000000E+00
  0.00000000E+00  0.00000000E+00  0.00000000E+00  0.00000000E+00  0.00000000E+00
  0.00000000E+00  0.00000000E+00  0.00000000E+00  0.00000000E+00  0.00000000E+00
  0.00000000E+00  0.00000000E+00  0.00000000E+00  0.00000000E+00  0.00000000E+00
  0.00000000E+00  0.00000000E+00  0.00000000E+00  0.00000000E+00  0.00000000E+00
  0.00000000E+00  0.00000000E+00  0.00000000E+00  0.00000000E+00  0.00000000E+00
  0.00000000E+00  0.00000000E+00  0.00000000E+00  0.00000000E+00  0.00000000E+00
  0.00000000E+00  0.00000000E+00  0.00000000E+00  0.00000000E+00  0.00000000E+00
  0.00000000E+00  0.00000000E+00  0.00000000E+00  0.00000000E+00  0.00000000E+00
  0.00000000E+00  0.00000000E+00  0.00000000E+00  0.00000000E+00  0.00000000E+00
  0.00000000E+00  0.00000000E+00  0.00000000E+00  0.00000000E+00  0.00000000E+00
  0.00000000E+00  0.00000000E+00  0.00000000E+00  0.00000000E+00  0.00000000E+00
  0.00000000E+00  0.00000000E+00  0.00000000E+00  0.00000000E+00  0.00000000E+00
  0.00000000E+00  0.00000000E+00  0.00000000E+00  0.00000000E+00  0.00000000E+00
  0.00000000E+00  0.00000000E+00  0.00000000E+00  0.00000000E+00  0.00000000E+00
  0.00000000E+00  0.00000000E+00  0.00000000E+00  0.00000000E+00  0.00000000E+00
  0.00000000E+00  0.00000000E+00  0.00000000E+00  0.00000000E+00  0.00000000E+00
  0.00000000E+00  0.00000000E+00  0.00000000E+00  0.00000000E+00  0.00000000E+00
  0.00000000E+00  0.00000000E+00  0.00000000E+00  0.00000000E+00  0.00000000E+00
  0.00000000E+00  0.00000000E+00  0.00000000E+00  0.00000000E+00
MO    3                     OCC NO =   1.00000000 ORB. ENERGY = -16.58454663
  3.76442998E+00  2.91964494E+00  2.80910032E+00  2.57787100E+00  2.56016656E+00
  2.67484462E+00  2.98934756E+00  3.37148625E+00  3.81546103E+00  4.06872075E+00
  3.56243586E+00  2.11917952E+00  2.17609514E-01  8.94300425E-01  1.99705213E+00
  2.35940610E+00  8.47153739E-01 -3.93201898E+00 -4.48648158E+00 -8.19527185E-02
  1.99695902E+00  7.93059442E-01  2.48121849E-02 -3.93991988E-03  7.75302765E-04
 -2.89153162E-04  5.86395443E-05  0.00000000E+00  0.00000000E+00  0.00000000E+00
  0.00000000E+00  0.00000000E+00  0.00000000E+00  0.00000000E+00  0.00000000E+00
  0.00000000E+00  0.00000000E+00  0.00000000E+00  0.00000000E+00  0.00000000E+00
  0.00000000E+00  0.00000000E+00  0.00000000E+00  0.00000000E+00  0.00000000E+00
  0.00000000E+00  0.00000000E+00  0.00000000E+00  0.00000000E+00  0.00000000E+00
  0.00000000E+00  0.00000000E+00  0.00000000E+00  0.00000000E+00  0.00000000E+00
  0.00000000E+00  0.00000000E+00  0.00000000E+00  0.00000000E+00  0.00000000E+00
  0.00000000E+00  0.00000000E+00  0.00000000E+00  0.00000000E+00  0.00000000E+00
  0.00000000E+00  0.00000000E+00  0.00000000E+00  0.00000000E+00  0.00000000E+00
  0.00000000E+00  0.00000000E+00  0.00000000E+00  0.00000000E+00  0.00000000E+00
  0.00000000E+00  0.00000000E+00  0.00000000E+00  0.00000000E+00  0.00000000E+00
  0.00000000E+00  0.00000000E+00  0.00000000E+00  0.00000000E+00  0.00000000E+00
  0.00000000E+00  0.00000000E+00  0.00000000E+00  0.00000000E+00  0.00000000E+00
  0.00000000E+00  0.00000000E+00  0.00000000E+00  0.00000000E+00  0.00000000E+00
  0.00000000E+00  0.00000000E+00  0.00000000E+00  0.00000000E+00  0.00000000E+00
  0.00000000E+00  0.00000000E+00  0.00000000E+00  0.00000000E+00  0.00000000E+00
  0.00000000E+00  0.00000000E+00  0.00000000E+00  0.00000000E+00  0.00000000E+00
  0.00000000E+00  0.00000000E+00  0.00000000E+00  0.00000000E+00  0.00000000E+00
  0.00000000E+00  0.00000000E+00  0.00000000E+00  0.00000000E+00  0.00000000E+00
  0.00000000E+00  0.00000000E+00  0.00000000E+00  0.00000000E+00  0.00000000E+00
  0.00000000E+00  0.00000000E+00  0.00000000E+00  0.00000000E+00  0.00000000E+00
  0.00000000E+00  0.00000000E+00  0.00000000E+00  0.00000000E+00  0.00000000E+00
  0.00000000E+00  0.00000000E+00  0.00000000E+00  0.00000000E+00  0.00000000E+00
  0.00000000E+00  0.00000000E+00  0.00000000E+00  0.00000000E+00  0.00000000E+00
  0.00000000E+00  0.00000000E+00  0.00000000E+00  0.00000000E+00  0.00000000E+00
  0.00000000E+00  0.00000000E+00  0.00000000E+00  0.00000000E+00  0.00000000E+00
  0.00000000E+00  0.00000000E+00  0.00000000E+00  0.00000000E+00  0.00000000E+00
  0.00000000E+00  0.00000000E+00  0.00000000E+00  0.00000000E+00  0.00000000E+00
  0.00000000E+00  0.00000000E+00  0.00000000E+00  0.00000000E+00  0.00000000E+00
  0.00000000E+00  0.00000000E+00  0.00000000E+00  0.00000000E+00  0.00000000E+00
  0.00000000E+00  0.00000000E+00  0.00000000E+00  0.00000000E+00  0.00000000E+00
  0.00000000E+00  0.00000000E+00  0.00000000E+00  0.00000000E+00  0.00000000E+00
  0.00000000E+00  0.00000000E+00  0.00000000E+00  0.00000000E+00  0.00000000E+00
  0.00000000E+00  0.00000000E+00  0.00000000E+00  0.00000000E+00  0.00000000E+00
  0.00000000E+00  0.00000000E+00  0.00000000E+00  0.00000000E+00  0.00000000E+00
  0.00000000E+00  0.00000000E+00  0.00000000E+00  0.00000000E+00  0.00000000E+00
  0.00000000E+00  0.00000000E+00  0.00000000E+00  0.00000000E+00  0.00000000E+00
  0.00000000E+00  0.00000000E+00  0.00000000E+00  0.00000000E+00  0.00000000E+00
  0.00000000E+00  0.00000000E+00  0.00000000E+00  0.00000000E+00  0.00000000E+00
  0.00000000E+00  0.00000000E+00  0.00000000E+00  0.00000000E+00  0.00000000E+00
  0.00000000E+00  0.00000000E+00  0.00000000E+00  0.00000000E+00  0.00000000E+00
  0.00000000E+00  0.00000000E+00  0.00000000E+00  0.00000000E+00
MO    4                     OCC NO =   1.00000000 ORB. ENERGY =  -2.31272338
 -1.48954409E+00 -1.15527182E+00 -1.11153051E+00 -1.02003558E+00 -1.01303012E+00
 -1.05840699E+00 -1.18285238E+00 -1.33406052E+00 -1.50973652E+00 -1.60994864E+00
 -1.40961721E+00 -8.38536335E-01 -8.79993446E-02 -3.61647107E-01 -8.07590053E-01
 -9.54122759E-01 -3.58495773E-01  1.72190364E+00  2.01256949E+00  1.11951494E-01
 -1.55410314E+00 -7.04499160E-01  5.92612960E-01  1.47098353E-01 -1.45933105E-04
  4.72935396E-04 -1.04898239E-04  0.00000000E+00  0.00000000E+00  0.00000000E+00
  0.00000000E+00  0.00000000E+00  0.00000000E+00  0.00000000E+00  0.00000000E+00
  0.00000000E+00  0.00000000E+00  0.00000000E+00  0.00000000E+00  0.00000000E+00
  0.00000000E+00  0.00000000E+00  0.00000000E+00  0.00000000E+00  0.00000000E+00
  0.00000000E+00  0.00000000E+00  0.00000000E+00  0.00000000E+00  0.00000000E+00
  0.00000000E+00  0.00000000E+00  0.00000000E+00  0.00000000E+00  0.00000000E+00
  0.00000000E+00  0.00000000E+00  0.00000000E+00  0.00000000E+00  0.00000000E+00
  0.00000000E+00  0.00000000E+00  0.00000000E+00  0.00000000E+00  0.00000000E+00
  0.00000000E+00  0.00000000E+00  0.00000000E+00  0.00000000E+00  0.00000000E+00
  0.00000000E+00  0.00000000E+00  0.00000000E+00  0.00000000E+00  0.00000000E+00
  0.00000000E+00  0.00000000E+00  0.00000000E+00  0.00000000E+00  0.00000000E+00
  0.00000000E+00  0.00000000E+00  0.00000000E+00  0.00000000E+00  0.00000000E+00
  0.00000000E+00  0.00000000E+00  0.00000000E+00  0.00000000E+00  0.00000000E+00
  0.00000000E+00  0.00000000E+00  0.00000000E+00  0.00000000E+00  0.00000000E+00
  0.00000000E+00  0.00000000E+00  0.00000000E+00  0.00000000E+00  0.00000000E+00
  0.00000000E+00  0.00000000E+00  0.00000000E+00  0.00000000E+00  0.00000000E+00
  0.00000000E+00  0.00000000E+00  0.00000000E+00  0.00000000E+00  0.00000000E+00
  0.00000000E+00  0.00000000E+00  0.00000000E+00  0.00000000E+00  0.00000000E+00
  0.00000000E+00  0.00000000E+00  0.00000000E+00  0.00000000E+00  0.00000000E+00
  0.00000000E+00  0.00000000E+00  0.00000000E+00  0.00000000E+00  0.00000000E+00
  0.00000000E+00  0.00000000E+00  0.00000000E+00  0.00000000E+00  0.00000000E+00
  0.00000000E+00  0.00000000E+00  0.00000000E+00  0.00000000E+00  0.00000000E+00
  0.00000000E+00  0.00000000E+00  0.00000000E+00  0.00000000E+00  0.00000000E+00
  0.00000000E+00  0.00000000E+00  0.00000000E+00  0.00000000E+00  0.00000000E+00
  0.00000000E+00  0.00000000E+00  0.00000000E+00  0.00000000E+00  0.00000000E+00
  0.00000000E+00  0.00000000E+00  0.00000000E+00  0.00000000E+00  0.00000000E+00
  0.00000000E+00  0.00000000E+00  0.00000000E+00  0.00000000E+00  0.00000000E+00
  0.00000000E+00  0.00000000E+00  0.00000000E+00  0.00000000E+00  0.00000000E+00
  0.00000000E+00  0.00000000E+00  0.00000000E+00  0.00000000E+00  0.00000000E+00
  0.00000000E+00  0.00000000E+00  0.00000000E+00  0.00000000E+00  0.00000000E+00
  0.00000000E+00  0.00000000E+00  0.00000000E+00  0.00000000E+00  0.00000000E+00
  0.00000000E+00  0.00000000E+00  0.00000000E+00  0.00000000E+00  0.00000000E+00
  0.00000000E+00  0.00000000E+00  0.00000000E+00  0.00000000E+00  0.00000000E+00
  0.00000000E+00  0.00000000E+00  0.00000000E+00  0.00000000E+00  0.00000000E+00
  0.00000000E+00  0.00000000E+00  0.00000000E+00  0.00000000E+00  0.00000000E+00
  0.00000000E+00  0.00000000E+00  0.00000000E+00  0.00000000E+00  0.00000000E+00
  0.00000000E+00  0.00000000E+00  0.00000000E+00  0.00000000E+00  0.00000000E+00
  0.00000000E+00  0.00000000E+00  0.00000000E+00  0.00000000E+00  0.00000000E+00
  0.00000000E+00  0.00000000E+00  0.00000000E+00  0.00000000E+00  0.00000000E+00
  0.00000000E+00  0.00000000E+00  0.00000000E+00  0.00000000E+00  0.00000000E+00
  0.00000000E+00  0.00000000E+00  0.00000000E+00  0.00000000E+00  0.00000000E+00
  0.00000000E+00  0.00000000E+00  0.00000000E+00  0.00000000E+00
MO    5                     OCC NO =   1.00000000 ORB. ENERGY =  -0.18609076
  4.44463486E-01  3.44720336E-01  3.31668414E-01  3.04367337E-01  3.02276988E-01
  3.15816942E-01  3.52950073E-01  3.98068908E-01  4.50488684E-01  4.80390873E-01
  4.20614189E-01  2.50209971E-01  2.63417593E-02  1.08255591E-01  2.41744332E-01
  2.85607491E-01  1.07969808E-01 -5.21287438E-01 -6.11809400E-01 -3.87877740E-02
  5.11747740E-01  2.48104073E-01 -2.90206976E-01 -1.19616614E-01  7.75654362E-02
  4.08274314E-02  5.55253266E-03  0.00000000E+00  0.00000000E+00  0.00000000E+00
  0.00000000E+00  0.00000000E+00  0.00000000E+00  0.00000000E+00  0.00000000E+00
  0.00000000E+00  0.00000000E+00  0.00000000E+00  0.00000000E+00  0.00000000E+00
  0.00000000E+00  0.00000000E+00  0.00000000E+00  0.00000000E+00  0.00000000E+00
  0.00000000E+00  0.00000000E+00  0.00000000E+00  0.00000000E+00  0.00000000E+00
  0.00000000E+00  0.00000000E+00  0.00000000E+00  0.00000000E+00  0.00000000E+00
  0.00000000E+00  0.00000000E+00  0.00000000E+00  0.00000000E+00  0.00000000E+00
  0.00000000E+00  0.00000000E+00  0.00000000E+00  0.00000000E+00  0.00000000E+00
  0.00000000E+00  0.00000000E+00  0.00000000E+00  0.00000000E+00  0.00000000E+00
  0.00000000E+00  0.00000000E+00  0.00000000E+00  0.00000000E+00  0.00000000E+00
  0.00000000E+00  0.00000000E+00  0.00000000E+00  0.00000000E+00  0.00000000E+00
  0.00000000E+00  0.00000000E+00  0.00000000E+00  0.00000000E+00  0.00000000E+00
  0.00000000E+00  0.00000000E+00  0.00000000E+00  0.00000000E+00  0.00000000E+00
  0.00000000E+00  0.00000000E+00  0.00000000E+00  0.00000000E+00  0.00000000E+00
  0.00000000E+00  0.00000000E+00  0.00000000E+00  0.00000000E+00  0.00000000E+00
  0.00000000E+00  0.00000000E+00  0.00000000E+00  0.00000000E+00  0.00000000E+00
  0.00000000E+00  0.00000000E+00  0.00000000E+00  0.00000000E+00  0.00000000E+00
  0.00000000E+00  0.00000000E+00  0.00000000E+00  0.00000000E+00  0.00000000E+00
  0.00000000E+00  0.00000000E+00  0.00000000E+00  0.00000000E+00  0.00000000E+00
  0.00000000E+00  0.00000000E+00  0.00000000E+00  0.00000000E+00  0.00000000E+00
  0.00000000E+00  0.00000000E+00  0.00000000E+00  0.00000000E+00  0.00000000E+00
  0.00000000E+00  0.00000000E+00  0.00000000E+00  0.00000000E+00  0.00000000E+00
  0.00000000E+00  0.00000000E+00  0.00000000E+00  0.00000000E+00  0.00000000E+00
  0.00000000E+00  0.00000000E+00  0.00000000E+00  0.00000000E+00  0.00000000E+00
  0.00000000E+00  0.00000000E+00  0.00000000E+00  0.00000000E+00  0.00000000E+00
  0.00000000E+00  0.00000000E+00  0.00000000E+00  0.00000000E+00  0.00000000E+00
  0.00000000E+00  0.00000000E+00  0.00000000E+00  0.00000000E+00  0.00000000E+00
  0.00000000E+00  0.00000000E+00  0.00000000E+00  0.00000000E+00  0.00000000E+00
  0.00000000E+00  0.00000000E+00  0.00000000E+00  0.00000000E+00  0.00000000E+00
  0.00000000E+00  0.00000000E+00  0.00000000E+00  0.00000000E+00  0.00000000E+00
  0.00000000E+00  0.00000000E+00  0.00000000E+00  0.00000000E+00  0.00000000E+00
  0.00000000E+00  0.00000000E+00  0.00000000E+00  0.00000000E+00  0.00000000E+00
  0.00000000E+00  0.00000000E+00  0.00000000E+00  0.00000000E+00  0.00000000E+00
  0.00000000E+00  0.00000000E+00  0.00000000E+00  0.00000000E+00  0.00000000E+00
  0.00000000E+00  0.00000000E+00  0.00000000E+00  0.00000000E+00  0.00000000E+00
  0.00000000E+00  0.00000000E+00  0.00000000E+00  0.00000000E+00  0.00000000E+00
  0.00000000E+00  0.00000000E+00  0.00000000E+00  0.00000000E+00  0.00000000E+00
  0.00000000E+00  0.00000000E+00  0.00000000E+00  0.00000000E+00  0.00000000E+00
  0.00000000E+00  0.00000000E+00  0.00000000E+00  0.00000000E+00  0.00000000E+00
  0.00000000E+00  0.00000000E+00  0.00000000E+00  0.00000000E+00  0.00000000E+00
  0.00000000E+00  0.00000000E+00  0.00000000E+00  0.00000000E+00  0.00000000E+00
  0.00000000E+00  0.00000000E+00  0.00000000E+00  0.00000000E+00
MO    6                     OCC NO =   1.00000000 ORB. ENERGY = -87.13608253
  0.00000000E+00  0.00000000E+00  0.00000000E+00  0.00000000E+00  0.00000000E+00
  0.00000000E+00  0.00000000E+00  0.00000000E+00  0.00000000E+00  0.00000000E+00
  0.00000000E+00  0.00000000E+00  0.00000000E+00  0.00000000E+00  0.00000000E+00
  0.00000000E+00  0.00000000E+00  0.00000000E+00  0.00000000E+00  0.00000000E+00
  0.00000000E+00  0.00000000E+00  0.00000000E+00  0.00000000E+00  0.00000000E+00
  0.00000000E+00  0.00000000E+00  3.26142570E+02  0.00000000E+00  0.00000000E+00
  1.55598066E+02  0.00000000E+00  0.00000000E+00  1.39680221E+02  0.00000000E+00
  0.00000000E+00  1.34102643E+02  0.00000000E+00  0.00000000E+00  1.52268208E+02
  0.00000000E+00  0.00000000E+00  1.71586586E+02  0.00000000E+00  0.00000000E+00
  1.82261580E+02  0.00000000E+00  0.00000000E+00  1.61012645E+02  0.00000000E+00
  0.00000000E+00  9.70754229E+01  0.00000000E+00  0.00000000E+00  3.11327155E+01
  0.00000000E+00  0.00000000E+00  3.32096048E+00  0.00000000E+00  0.00000000E+00
 -3.17505548E-01  0.00000000E+00  0.00000000E+00 -2.37271407E-02  0.00000000E+00
  0.00000000E+00 -3.32042670E-02  0.00000000E+00  0.00000000E+00  3.67834842E-02
  0.00000000E+00  0.00000000E+00  3.86283442E-02  0.00000000E+00  0.00000000E+00
  1.51170171E-02  0.00000000E+00  0.00000000E+00 -9.60718332E-04  0.00000000E+00
  0.00000000E+00  2.77777719E-04  0.00000000E+00  0.00000000E+00 -6.36969630E-05
  0.00000000E+00  0.00000000E+00 -4.55282118E-04  0.00000000E+00  0.00000000E+00
 -3.06049250E-04  0.00000000E+00  0.00000000E+00  6.27310352E-04  0.00000000E+00
  0.00000000E+00 -1.14636137E-04  0.00000000E+00  0.00000000E+00  8.61904506E-06
  0.00000000E+00  0.00000000E+00 -7.64373941E-07  0.00000000E+00  0.00000000E+00
  0.00000000E+00  0.00000000E+00  0.00000000E+00  0.00000000E+00  0.00000000E+00
  0.00000000E+00  0.00000000E+00  0.00000000E+00  0.00000000E+00  0.00000000E+00
  0.00000000E+00  0.00000000E+00  0.00000000E+00  0.00000000E+00  0.00000000E+00
  0.00000000E+00  0.00000000E+00  0.00000000E+00  0.00000000E+00  0.00000000E+00
  0.00000000E+00  0.00000000E+00  0.00000000E+00  0.00000000E+00  0.00000000E+00
  0.00000000E+00  0.00000000E+00  0.00000000E+00  0.00000000E+00  0.00000000E+00
  0.00000000E+00  0.00000000E+00  0.00000000E+00  0.00000000E+00  0.00000000E+00
  0.00000000E+00  0.00000000E+00  0.00000000E+00  0.00000000E+00  0.00000000E+00
  0.00000000E+00  0.00000000E+00  0.00000000E+00  0.00000000E+00  0.00000000E+00
  0.00000000E+00  0.00000000E+00  0.00000000E+00  0.00000000E+00  0.00000000E+00
  0.00000000E+00  0.00000000E+00  0.00000000E+00  0.00000000E+00  0.00000000E+00
  0.00000000E+00  0.00000000E+00  0.00000000E+00  0.00000000E+00  0.00000000E+00
  0.00000000E+00  0.00000000E+00  0.00000000E+00  0.00000000E+00  0.00000000E+00
  0.00000000E+00  0.00000000E+00  0.00000000E+00  0.00000000E+00  0.00000000E+00
  0.00000000E+00  0.00000000E+00  0.00000000E+00  0.00000000E+00  0.00000000E+00
  0.00000000E+00  0.00000000E+00  0.00000000E+00  0.00000000E+00  0.00000000E+00
  0.00000000E+00  0.00000000E+00  0.00000000E+00  0.00000000E+00  0.00000000E+00
  0.00000000E+00  0.00000000E+00  0.00000000E+00  0.00000000E+00  0.00000000E+00
  0.00000000E+00  0.00000000E+00  0.00000000E+00  0.00000000E+00  0.00000000E+00
  0.00000000E+00  0.00000000E+00  0.00000000E+00  0.00000000E+00  0.00000000E+00
  0.00000000E+00  0.00000000E+00  0.00000000E+00  0.00000000E+00  0.00000000E+00
  0.00000000E+00  0.00000000E+00  0.00000000E+00  0.00000000E+00  0.00000000E+00
  0.00000000E+00  0.00000000E+00  0.00000000E+00  0.00000000E+00  0.00000000E+00
  0.00000000E+00  0.00000000E+00  0.00000000E+00  0.00000000E+00  0.00000000E+00
  0.00000000E+00  0.00000000E+00  0.00000000E+00  0.00000000E+00  0.00000000E+00
  0.00000000E+00  0.00000000E+00  0.00000000E+00  0.00000000E+00
MO    7                     OCC NO =   1.00000000 ORB. ENERGY = -87.13608253
  0.00000000E+00  0.00000000E+00  0.00000000E+00  0.00000000E+00  0.00000000E+00
  0.00000000E+00  0.00000000E+00  0.00000000E+00  0.00000000E+00  0.00000000E+00
  0.00000000E+00  0.00000000E+00  0.00000000E+00  0.00000000E+00  0.00000000E+00
  0.00000000E+00  0.00000000E+00  0.00000000E+00  0.00000000E+00  0.00000000E+00
  0.00000000E+00  0.00000000E+00  0.00000000E+00  0.00000000E+00  0.00000000E+00
  0.00000000E+00  0.00000000E+00  0.00000000E+00  3.26142570E+02  0.00000000E+00
  0.00000000E+00  1.55598066E+02  0.00000000E+00  0.00000000E+00  1.39680221E+02
  0.00000000E+00  0.00000000E+00  1.34102643E+02  0.00000000E+00  0.00000000E+00
  1.52268208E+02  0.00000000E+00  0.00000000E+00  1.71586586E+02  0.00000000E+00
  0.00000000E+00  1.82261580E+02  0.00000000E+00  0.00000000E+00  1.61012645E+02