atomref-proatoms Nd_q0_mult5_nist x2c-QZVPall
GAUSSIAN             63 MOL ORBITALS    437 PRIMITIVES        1 NUCLEI
  Nd   1    (CENTRE  1)   0.00000000  0.00000000  0.00000000  CHARGE = 60.0
CENTRE ASSIGNMENTS    1  1  1  1  1  1  1  1  1  1  1  1  1  1  1  1  1  1  1  1
CENTRE ASSIGNMENTS    1  1  1  1  1  1  1  1  1  1  1  1  1  1  1  1  1  1  1  1
CENTRE ASSIGNMENTS    1  1  1  1  1  1  1  1  1  1  1  1  1  1  1  1  1  1  1  1
CENTRE ASSIGNMENTS    1  1  1  1  1  1  1  1  1  1  1  1  1  1  1  1  1  1  1  1
CENTRE ASSIGNMENTS    1  1  1  1  1  1  1  1  1  1  1  1  1  1  1  1  1  1  1  1
CENTRE ASSIGNMENTS    1  1  1  1  1  1  1  1  1  1  1  1  1  1  1  1  1  1  1  1
CENTRE ASSIGNMENTS    1  1  1  1  1  1  1  1  1  1  1  1  1  1  1  1  1  1  1  1
CENTRE ASSIGNMENTS    1  1  1  1  1  1  1  1  1  1  1  1  1  1  1  1  1  1  1  1
CENTRE ASSIGNMENTS    1  1  1  1  1  1  1  1  1  1  1  1  1  1  1  1  1  1  1  1
CENTRE ASSIGNMENTS    1  1  1  1  1  1  1  1  1  1  1  1  1  1  1  1  1  1  1  1
CENTRE ASSIGNMENTS    1  1  1  1  1  1  1  1  1  1  1  1  1  1  1  1  1  1  1  1
CENTRE ASSIGNMENTS    1  1  1  1  1  1  1  1  1  1  1  1  1  1  1  1  1  1  1  1
CENTRE ASSIGNMENTS    1  1  1  1  1  1  1  1  1  1  1  1  1  1  1  1  1  1  1  1
CENTRE ASSIGNMENTS    1  1  1  1  1  1  1  1  1  1  1  1  1  1  1  1  1  1  1  1
CENTRE ASSIGNMENTS    1  1  1  1  1  1  1  1  1  1  1  1  1  1  1  1  1  1  1  1
CENTRE ASSIGNMENTS    1  1  1  1  1  1  1  1  1  1  1  1  1  1  1  1  1  1  1  1
CENTRE ASSIGNMENTS    1  1  1  1  1  1  1  1  1  1  1  1  1  1  1  1  1  1  1  1
CENTRE ASSIGNMENTS    1  1  1  1  1  1  1  1  1  1  1  1  1  1  1  1  1  1  1  1
CENTRE ASSIGNMENTS    1  1  1  1  1  1  1  1  1  1  1  1  1  1  1  1  1  1  1  1
CENTRE ASSIGNMENTS    1  1  1  1  1  1  1  1  1  1  1  1  1  1  1  1  1  1  1  1
CENTRE ASSIGNMENTS    1  1  1  1  1  1  1  1  1  1  1  1  1  1  1  1  1  1  1  1
CENTRE ASSIGNMENTS    1  1  1  1  1  1  1  1  1  1  1  1  1  1  1  1  1
TYPE ASSIGNMENTS      1  1  1  1  1  1  1  1  1  1  1  1  1  1  1  1  1  1  1  1
TYPE ASSIGNMENTS      1  1  1  1  1  1  1  1  1  1  2  3  4  2  3  4  2  3  4  2
TYPE ASSIGNMENTS      3  4  2  3  4  2  3  4  2  3  4  2  3  4  2  3  4  2  3  4
TYPE ASSIGNMENTS      2  3  4  2  3  4  2  3  4  2  3  4  2  3  4  2  3  4  2  3
TYPE ASSIGNMENTS      4  2  3  4  2  3  4  2  3  4  2  3  4  2  3  4  2  3  4  2
TYPE ASSIGNMENTS      3  4  2  3  4  2  3  4  2  3  4  2  3  4  2  3  4  2  3  4
TYPE ASSIGNMENTS      2  3  4  2  3  4  2  3  4  2  3  4  5  8  9  6 10  7  5  8
TYPE ASSIGNMENTS      9  6 10  7  5  8  9  6 10  7  5  8  9  6 10  7  5  8  9  6
TYPE ASSIGNMENTS     10  7  5  8  9  6 10  7  5  8  9  6 10  7  5  8  9  6 10  7
TYPE ASSIGNMENTS      5  8  9  6 10  7  5  8  9  6 10  7  5  8  9  6 10  7  5  8
TYPE ASSIGNMENTS      9  6 10  7  5  8  9  6 10  7  5  8  9  6 10  7  5  8  9  6
TYPE ASSIGNMENTS     10  7  5  8  9  6 10  7  5  8  9  6 10  7  5  8  9  6 10  7
TYPE ASSIGNMENTS      5  8  9  6 10  7  5  8  9  6 10  7 11 14 15 17 20 18 12 16
TYPE ASSIGNMENTS     19 13 11 14 15 17 20 18 12 16 19 13 11 14 15 17 20 18 12 16
TYPE ASSIGNMENTS     19 13 11 14 15 17 20 18 12 16 19 13 11 14 15 17 20 18 12 16
TYPE ASSIGNMENTS     19 13 11 14 15 17 20 18 12 16 19 13 11 14 15 17 20 18 12 16
TYPE ASSIGNMENTS     19 13 11 14 15 17 20 18 12 16 19 13 11 14 15 17 20 18 12 16
TYPE ASSIGNMENTS     19 13 11 14 15 17 20 18 12 16 19 13 11 14 15 17 20 18 12 16
TYPE ASSIGNMENTS     19 13 21 24 25 30 33 31 26 34 35 28 22 27 32 29 23 21 24 25
TYPE ASSIGNMENTS     30 33 31 26 34 35 28 22 27 32 29 23 21 24 25 30 33 31 26 34
TYPE ASSIGNMENTS     35 28 22 27 32 29 23 21 24 25 30 33 31 26 34 35 28 22 27 32
TYPE ASSIGNMENTS     29 23 21 24 25 30 33 31 26 34 35 28 22 27 32 29 23
EXPONENTS  6.7173250E+07 1.8795719E+07 5.7046273E+06 1.7935345E+06 6.1163228E+05
EXPONENTS  2.1857012E+05 8.2316194E+04 3.2089610E+04 1.3757655E+04 6.1116459E+03
EXPONENTS  2.7983084E+03 1.0836051E+03 5.4365847E+04 1.2885862E+04 4.2188467E+03
EXPONENTS  1.5455361E+03 6.1662512E+02 3.3983223E+02 1.2763444E+02 7.2608137E+01
EXPONENTS  4.3092557E+01 1.9094523E+01 1.0195564E+01 4.6808915E+00 2.3648213E+00
EXPONENTS  9.2661980E-01 4.9119290E-01 2.1847108E-01 6.5321550E-02 2.5562463E-02
EXPONENTS  1.6000000E+02 1.6000000E+02 1.6000000E+02 2.8464815E+06 2.8464815E+06
EXPONENTS  2.8464815E+06 8.4165644E+05 8.4165644E+05 8.4165644E+05 2.6130675E+05
EXPONENTS  2.6130675E+05 2.6130675E+05 8.5183543E+04 8.5183543E+04 8.5183543E+04
EXPONENTS  2.9157486E+04 2.9157486E+04 2.9157486E+04 1.0479336E+04 1.0479336E+04
EXPONENTS  1.0479336E+04 3.9546379E+03 3.9546379E+03 3.9546379E+03 1.5672684E+03
EXPONENTS  1.5672684E+03 1.5672684E+03 6.4811888E+02 6.4811888E+02 6.4811888E+02
EXPONENTS  2.8903449E+02 2.8903449E+02 2.8903449E+02 1.3834565E+02 1.3834565E+02
EXPONENTS  1.3834565E+02 6.9024208E+01 6.9024208E+01 6.9024208E+01 3.4023410E+01
EXPONENTS  3.4023410E+01 3.4023410E+01 1.0307459E+03 1.0307459E+03 1.0307459E+03
EXPONENTS  3.5844210E+02 3.5844210E+02 3.5844210E+02 1.5770074E+02 1.5770074E+02
EXPONENTS  1.5770074E+02 4.0106748E+01 4.0106748E+01 4.0106748E+01 2.0714910E+01
EXPONENTS  2.0714910E+01 2.0714910E+01 1.0679321E+01 1.0679321E+01 1.0679321E+01
EXPONENTS  4.7802965E+00 4.7802965E+00 4.7802965E+00 6.3424145E+01 6.3424145E+01
EXPONENTS  6.3424145E+01 2.0441328E+01 2.0441328E+01 2.0441328E+01 6.3463043E+00
EXPONENTS  6.3463043E+00 6.3463043E+00 3.4731367E+00 3.4731367E+00 3.4731367E+00
EXPONENTS  1.7186428E+00 1.7186428E+00 1.7186428E+00 3.0236447E+00 3.0236447E+00
EXPONENTS  3.0236447E+00 9.9876847E-01 9.9876847E-01 9.9876847E-01 5.4509388E-01
EXPONENTS  5.4509388E-01 5.4509388E-01 6.2744676E-01 6.2744676E-01 6.2744676E-01
EXPONENTS  2.6073478E-01 2.6073478E-01 2.6073478E-01 1.1035224E-01 1.1035224E-01
EXPONENTS  1.1035224E-01 5.7892440E-02 5.7892440E-02 5.7892440E-02 1.7509578E-02
EXPONENTS  1.7509578E-02 1.7509578E-02 3.6633127E+03 3.6633127E+03 3.6633127E+03
EXPONENTS  3.6633127E+03 3.6633127E+03 3.6633127E+03 1.0573818E+03 1.0573818E+03
EXPONENTS  1.0573818E+03 1.0573818E+03 1.0573818E+03 1.0573818E+03 4.1255636E+02
EXPONENTS  4.1255636E+02 4.1255636E+02 4.1255636E+02 4.1255636E+02 4.1255636E+02
EXPONENTS  1.8358231E+02 1.8358231E+02 1.8358231E+02 1.8358231E+02 1.8358231E+02
EXPONENTS  1.8358231E+02 8.8401629E+01 8.8401629E+01 8.8401629E+01 8.8401629E+01
EXPONENTS  8.8401629E+01 8.8401629E+01 4.4881421E+01 4.4881421E+01 4.4881421E+01
EXPONENTS  4.4881421E+01 4.4881421E+01 4.4881421E+01 2.3200166E+01 2.3200166E+01
EXPONENTS  2.3200166E+01 2.3200166E+01 2.3200166E+01 2.3200166E+01 1.1843801E+01
EXPONENTS  1.1843801E+01 1.1843801E+01 1.1843801E+01 1.1843801E+01 1.1843801E+01
EXPONENTS  2.2000000E+01 2.2000000E+01 2.2000000E+01 2.2000000E+01 2.2000000E+01
EXPONENTS  2.2000000E+01 1.6145221E+02 1.6145221E+02 1.6145221E+02 1.6145221E+02
EXPONENTS  1.6145221E+02 1.6145221E+02 6.2561149E+01 6.2561149E+01 6.2561149E+01
EXPONENTS  6.2561149E+01 6.2561149E+01 6.2561149E+01 1.4314987E+01 1.4314987E+01
EXPONENTS  1.4314987E+01 1.4314987E+01 1.4314987E+01 1.4314987E+01 5.8604906E+00
EXPONENTS  5.8604906E+00 5.8604906E+00 5.8604906E+00 5.8604906E+00 5.8604906E+00
EXPONENTS  8.4547190E+00 8.4547190E+00 8.4547190E+00 8.4547190E+00 8.4547190E+00
EXPONENTS  8.4547190E+00 3.3906797E+00 3.3906797E+00 3.3906797E+00 3.3906797E+00
EXPONENTS  3.3906797E+00 3.3906797E+00 1.6992036E+00 1.6992036E+00 1.6992036E+00
EXPONENTS  1.6992036E+00 1.6992036E+00 1.6992036E+00 7.7141247E-01 7.7141247E-01
EXPONENTS  7.7141247E-01 7.7141247E-01 7.7141247E-01 7.7141247E-01 2.7240607E-01
EXPONENTS  2.7240607E-01 2.7240607E-01 2.7240607E-01 2.7240607E-01 2.7240607E-01
EXPONENTS  8.9200572E-02 8.9200572E-02 8.9200572E-02 8.9200572E-02 8.9200572E-02
EXPONENTS  8.9200572E-02 2.7504999E-02 2.7504999E-02 2.7504999E-02 2.7504999E-02
EXPONENTS  2.7504999E-02 2.7504999E-02 1.7946486E+02 1.7946486E+02 1.7946486E+02
EXPONENTS  1.7946486E+02 1.7946486E+02 1.7946486E+02 1.7946486E+02 1.7946486E+02
EXPONENTS  1.7946486E+02 1.7946486E+02 6.9172167E+01 6.9172167E+01 6.9172167E+01
EXPONENTS  6.9172167E+01 6.9172167E+01 6.9172167E+01 6.9172167E+01 6.9172167E+01
EXPONENTS  6.9172167E+01 6.9172167E+01 3.3882167E+01 3.3882167E+01 3.3882167E+01
EXPONENTS  3.3882167E+01 3.3882167E+01 3.3882167E+01 3.3882167E+01 3.3882167E+01
EXPONENTS  3.3882167E+01 3.3882167E+01 1.6876831E+01 1.6876831E+01 1.6876831E+01
EXPONENTS  1.6876831E+01 1.6876831E+01 1.6876831E+01 1.6876831E+01 1.6876831E+01
EXPONENTS  1.6876831E+01 1.6876831E+01 8.4833303E+00 8.4833303E+00 8.4833303E+00
EXPONENTS  8.4833303E+00 8.4833303E+00 8.4833303E+00 8.4833303E+00 8.4833303E+00
EXPONENTS  8.4833303E+00 8.4833303E+00 4.3304558E+00 4.3304558E+00 4.3304558E+00
EXPONENTS  4.3304558E+00 4.3304558E+00 4.3304558E+00 4.3304558E+00 4.3304558E+00
EXPONENTS  4.3304558E+00 4.3304558E+00 2.1991686E+00 2.1991686E+00 2.1991686E+00
EXPONENTS  2.1991686E+00 2.1991686E+00 2.1991686E+00 2.1991686E+00 2.1991686E+00
EXPONENTS  2.1991686E+00 2.1991686E+00 1.0665169E+00 1.0665169E+00 1.0665169E+00
EXPONENTS  1.0665169E+00 1.0665169E+00 1.0665169E+00 1.0665169E+00 1.0665169E+00
EXPONENTS  1.0665169E+00 1.0665169E+00 4.8062796E-01 4.8062796E-01 4.8062796E-01
EXPONENTS  4.8062796E-01 4.8062796E-01 4.8062796E-01 4.8062796E-01 4.8062796E-01
EXPONENTS  4.8062796E-01 4.8062796E-01 1.9555357E-01 1.9555357E-01 1.9555357E-01
EXPONENTS  1.9555357E-01 1.9555357E-01 1.9555357E-01 1.9555357E-01 1.9555357E-01
EXPONENTS  1.9555357E-01 1.9555357E-01 6.5000000E-02 6.5000000E-02 6.5000000E-02
EXPONENTS  6.5000000E-02 6.5000000E-02 6.5000000E-02 6.5000000E-02 6.5000000E-02
EXPONENTS  6.5000000E-02 6.5000000E-02 2.0170000E+01 2.0170000E+01 2.0170000E+01
EXPONENTS  2.0170000E+01 2.0170000E+01 2.0170000E+01 2.0170000E+01 2.0170000E+01
EXPONENTS  2.0170000E+01 2.0170000E+01 2.0170000E+01 2.0170000E+01 2.0170000E+01
EXPONENTS  2.0170000E+01 2.0170000E+01 9.0999000E+00 9.0999000E+00 9.0999000E+00
EXPONENTS  9.0999000E+00 9.0999000E+00 9.0999000E+00 9.0999000E+00 9.0999000E+00
EXPONENTS  9.0999000E+00 9.0999000E+00 9.0999000E+00 9.0999000E+00 9.0999000E+00
EXPONENTS  9.0999000E+00 9.0999000E+00 4.1085000E+00 4.1085000E+00 4.1085000E+00
EXPONENTS  4.1085000E+00 4.1085000E+00 4.1085000E+00 4.1085000E+00 4.1085000E+00
EXPONENTS  4.1085000E+00 4.1085000E+00 4.1085000E+00 4.1085000E+00 4.1085000E+00
EXPONENTS  4.1085000E+00 4.1085000E+00 1.7914000E+00 1.7914000E+00 1.7914000E+00
EXPONENTS  1.7914000E+00 1.7914000E+00 1.7914000E+00 1.7914000E+00 1.7914000E+00
EXPONENTS  1.7914000E+00 1.7914000E+00 1.7914000E+00 1.7914000E+00 1.7914000E+00
EXPONENTS  1.7914000E+00 1.7914000E+00 4.3122000E-01 4.3122000E-01 4.3122000E-01
EXPONENTS  4.3122000E-01 4.3122000E-01 4.3122000E-01 4.3122000E-01 4.3122000E-01
EXPONENTS  4.3122000E-01 4.3122000E-01 4.3122000E-01 4.3122000E-01 4.3122000E-01
EXPONENTS  4.3122000E-01 4.3122000E-01
MO    1                     OCC NO =   1.00000000 ORB. ENERGY = -1595.79014291
  8.03481691E+01  7.19721788E+01  6.85233173E+01  5.87370821E+01  5.32239292E+01
  4.97451662E+01  4.76230446E+01  4.63290142E+01  4.68430955E+01  4.23756418E+01
  3.88801137E+01  2.35746988E+01  3.38742836E+00  5.99598635E+00  1.64015230E+01
  3.08302855E+01  2.19802963E+01  9.75408944E+00  1.31209663E+00 -5.32939690E-01
  2.03061449E-01 -5.09564355E-02  2.06048167E-02 -6.21964163E-03  2.08156366E-03
 -5.69682022E-04  2.29281606E-04 -4.26486577E-05  4.90766591E-06 -8.07631115E-07
  0.00000000E+00  0.00000000E+00  0.00000000E+00  0.00000000E+00  0.00000000E+00
  0.00000000E+00  0.00000000E+00  0.00000000E+00  0.00000000E+00  0.00000000E+00
  0.00000000E+00  0.00000000E+00  0.00000000E+00  0.00000000E+00  0.00000000E+00
  0.00000000E+00  0.00000000E+00  0.00000000E+00  0.00000000E+00  0.00000000E+00
  0.00000000E+00  0.00000000E+00  0.00000000E+00  0.00000000E+00  0.00000000E+00
  0.00000000E+00  0.00000000E+00  0.00000000E+00  0.00000000E+00  0.00000000E+00
  0.00000000E+00  0.00000000E+00  0.00000000E+00  0.00000000E+00  0.00000000E+00
  0.00000000E+00  0.00000000E+00  0.00000000E+00  0.00000000E+00  0.00000000E+00
  0.00000000E+00  0.00000000E+00  0.00000000E+00  0.00000000E+00  0.00000000E+00
  0.00000000E+00  0.00000000E+00  0.00000000E+00  0.00000000E+00  0.00000000E+00
  0.00000000E+00  0.00000000E+00  0.00000000E+00  0.00000000E+00  0.00000000E+00
  0.00000000E+00  0.00000000E+00  0.00000000E+00  0.00000000E+00  0.00000000E+00
  0.00000000E+00  0.00000000E+00  0.00000000E+00  0.00000000E+00  0.00000000E+00
  0.00000000E+00  0.00000000E+00  0.00000000E+00  0.00000000E+00  0.00000000E+00
  0.00000000E+00  0.00000000E+00  0.00000000E+00  0.00000000E+00  0.00000000E+00
  0.00000000E+00  0.00000000E+00  0.00000000E+00  0.00000000E+00  0.00000000E+00
  0.00000000E+00  0.00000000E+00  0.00000000E+00  0.00000000E+00  0.00000000E+00
  0.00000000E+00  0.00000000E+00  0.00000000E+00  0.00000000E+00  0.00000000E+00
  0.00000000E+00  0.00000000E+00  0.00000000E+00  0.00000000E+00  0.00000000E+00
  0.00000000E+00  0.00000000E+00  0.00000000E+00  0.00000000E+00  0.00000000E+00
  0.00000000E+00  0.00000000E+00  0.00000000E+00  0.00000000E+00  0.00000000E+00
  0.00000000E+00  0.00000000E+00  0.00000000E+00  0.00000000E+00  0.00000000E+00
  0.00000000E+00  0.00000000E+00  0.00000000E+00  0.00000000E+00  0.00000000E+00
  0.00000000E+00  0.00000000E+00  0.00000000E+00  0.00000000E+00  0.00000000E+00
  0.00000000E+00  0.00000000E+00  0.00000000E+00  0.00000000E+00  0.00000000E+00
  0.00000000E+00  0.00000000E+00  0.00000000E+00  0.00000000E+00  0.00000000E+00
  0.00000000E+00  0.00000000E+00  0.00000000E+00  0.00000000E+00  0.00000000E+00
  0.00000000E+00  0.00000000E+00  0.00000000E+00  0.00000000E+00  0.00000000E+00
  0.00000000E+00  0.00000000E+00  0.00000000E+00  0.00000000E+00  0.00000000E+00
  0.00000000E+00  0.00000000E+00  0.00000000E+00  0.00000000E+00  0.00000000E+00
  0.00000000E+00  0.00000000E+00  0.00000000E+00  0.00000000E+00  0.00000000E+00
  0.00000000E+00  0.00000000E+00  0.00000000E+00  0.00000000E+00  0.00000000E+00
  0.00000000E+00  0.00000000E+00  0.00000000E+00  0.00000000E+00  0.00000000E+00
  0.00000000E+00  0.00000000E+00  0.00000000E+00  0.00000000E+00  0.00000000E+00
  0.00000000E+00  0.00000000E+00  0.00000000E+00  0.00000000E+00  0.00000000E+00
  0.00000000E+00  0.00000000E+00  0.00000000E+00  0.00000000E+00  0.00000000E+00
  0.00000000E+00  0.00000000E+00  0.00000000E+00  0.00000000E+00  0.00000000E+00
  0.00000000E+00  0.00000000E+00  0.00000000E+00  0.00000000E+00  0.00000000E+00
  0.00000000E+00  0.00000000E+00  0.00000000E+00  0.00000000E+00  0.00000000E+00
  0.00000000E+00  0.00000000E+00  0.00000000E+00  0.00000000E+00  0.00000000E+00
  0.00000000E+00  0.00000000E+00  0.00000000E+00  0.00000000E+00  0.00000000E+00
  0.00000000E+00  0.00000000E+00  0.00000000E+00  0.00000000E+00  0.00000000E+00
  0.00000000E+00  0.00000000E+00  0.00000000E+00  0.00000000E+00  0.00000000E+00
  0.00000000E+00  0.00000000E+00  0.00000000E+00  0.00000000E+00  0.00000000E+00
  0.00000000E+00  0.00000000E+00  0.00000000E+00  0.00000000E+00  0.00000000E+00
  0.00000000E+00  0.00000000E+00  0.00000000E+00  0.00000000E+00  0.00000000E+00
  0.00000000E+00  0.00000000E+00  0.00000000E+00  0.00000000E+00  0.00000000E+00
  0.00000000E+00  0.00000000E+00  0.00000000E+00  0.00000000E+00  0.00000000E+00
  0.00000000E+00  0.00000000E+00  0.00000000E+00  0.00000000E+00  0.00000000E+00
  0.00000000E+00  0.00000000E+00  0.00000000E+00  0.00000000E+00  0.00000000E+00
  0.00000000E+00  0.00000000E+00  0.00000000E+00  0.00000000E+00  0.00000000E+00
  0.00000000E+00  0.00000000E+00  0.00000000E+00  0.00000000E+00  0.00000000E+00
  0.00000000E+00  0.00000000E+00  0.00000000E+00  0.00000000E+00  0.00000000E+00
  0.00000000E+00  0.00000000E+00  0.00000000E+00  0.00000000E+00  0.00000000E+00
  0.00000000E+00  0.00000000E+00  0.00000000E+00  0.00000000E+00  0.00000000E+00
  0.00000000E+00  0.00000000E+00  0.00000000E+00  0.00000000E+00  0.00000000E+00
  0.00000000E+00  0.00000000E+00  0.00000000E+00  0.00000000E+00  0.00000000E+00
  0.00000000E+00  0.00000000E+00  0.00000000E+00  0.00000000E+00  0.00000000E+00
  0.00000000E+00  0.00000000E+00  0.00000000E+00  0.00000000E+00  0.00000000E+00
  0.00000000E+00  0.00000000E+00  0.00000000E+00  0.00000000E+00  0.00000000E+00
  0.00000000E+00  0.00000000E+00  0.00000000E+00  0.00000000E+00  0.00000000E+00
  0.00000000E+00  0.00000000E+00  0.00000000E+00  0.00000000E+00  0.00000000E+00
  0.00000000E+00  0.00000000E+00  0.00000000E+00  0.00000000E+00  0.00000000E+00
  0.00000000E+00  0.00000000E+00  0.00000000E+00  0.00000000E+00  0.00000000E+00
  0.00000000E+00  0.00000000E+00  0.00000000E+00  0.00000000E+00  0.00000000E+00
  0.00000000E+00  0.00000000E+00  0.00000000E+00  0.00000000E+00  0.00000000E+00
  0.00000000E+00  0.00000000E+00  0.00000000E+00  0.00000000E+00  0.00000000E+00
  0.00000000E+00  0.00000000E+00  0.00000000E+00  0.00000000E+00  0.00000000E+00
  0.00000000E+00  0.00000000E+00  0.00000000E+00  0.00000000E+00  0.00000000E+00
  0.00000000E+00  0.00000000E+00  0.00000000E+00  0.00000000E+00  0.00000000E+00
  0.00000000E+00  0.00000000E+00  0.00000000E+00  0.00000000E+00  0.00000000E+00
  0.00000000E+00  0.00000000E+00  0.00000000E+00  0.00000000E+00  0.00000000E+00
  0.00000000E+00  0.00000000E+00  0.00000000E+00  0.00000000E+00  0.00000000E+00
  0.00000000E+00  0.00000000E+00  0.00000000E+00  0.00000000E+00  0.00000000E+00
  0.00000000E+00  0.00000000E+00  0.00000000E+00  0.00000000E+00  0.00000000E+00
  0.00000000E+00  0.00000000E+00  0.00000000E+00  0.00000000E+00  0.00000000E+00
  0.00000000E+00  0.00000000E+00  0.00000000E+00  0.00000000E+00  0.00000000E+00
  0.00000000E+00  0.00000000E+00  0.00000000E+00  0.00000000E+00  0.00000000E+00
  0.00000000E+00  0.00000000E+00  0.00000000E+00  0.00000000E+00  0.00000000E+00
  0.00000000E+00  0.00000000E+00  0.00000000E+00  0.00000000E+00  0.00000000E+00
  0.00000000E+00  0.00000000E+00  0.00000000E+00  0.00000000E+00  0.00000000E+00
  0.00000000E+00  0.00000000E+00
MO    2                     OCC NO =   1.00000000 ORB. ENERGY = -259.16717438
 -2.91598775E+01 -2.61200715E+01 -2.48684141E+01 -2.13168033E+01 -1.93159754E+01
 -1.80534662E+01 -1.72833079E+01 -1.68136797E+01 -1.70002496E+01 -1.53789257E+01
 -1.41103321E+01 -8.55570622E+00 -1.95592896E+00 -3.46213177E+00 -9.47037408E+00
 -1.78016601E+01 -1.66814982E+01 -2.88397482E+00  1.02420412E+01  7.25778427E+00
  3.81696453E+00  3.05843252E-01 -3.66687148E-02  7.62115741E-03 -2.27209682E-03
  5.69203873E-04 -2.23502596E-04  4.12422969E-05 -4.71281902E-06  7.74661445E-07
  0.00000000E+00  0.00000000E+00  0.00000000E+00  0.00000000E+00  0.00000000E+00
  0.00000000E+00  0.00000000E+00  0.00000000E+00  0.00000000E+00  0.00000000E+00
  0.00000000E+00  0.00000000E+00  0.00000000E+00  0.00000000E+00  0.00000000E+00
  0.00000000E+00  0.00000000E+00  0.00000000E+00  0.00000000E+00  0.00000000E+00
  0.00000000E+00  0.00000000E+00  0.00000000E+00  0.00000000E+00  0.00000000E+00
  0.00000000E+00  0.00000000E+00  0.00000000E+00  0.00000000E+00  0.00000000E+00
  0.00000000E+00  0.00000000E+00  0.00000000E+00  0.00000000E+00  0.00000000E+00
  0.00000000E+00  0.00000000E+00  0.00000000E+00  0.00000000E+00  0.00000000E+00
  0.00000000E+00  0.00000000E+00  0.00000000E+00  0.00000000E+00  0.00000000E+00
  0.00000000E+00  0.00000000E+00  0.00000000E+00  0.00000000E+00  0.00000000E+00
  0.00000000E+00  0.00000000E+00  0.00000000E+00  0.00000000E+00  0.00000000E+00
  0.00000000E+00  0.00000000E+00  0.00000000E+00  0.00000000E+00  0.00000000E+00
  0.00000000E+00  0.00000000E+00  0.00000000E+00  0.00000000E+00  0.00000000E+00
  0.00000000E+00  0.00000000E+00  0.00000000E+00  0.00000000E+00  0.00000000E+00
  0.00000000E+00  0.00000000E+00  0.00000000E+00  0.00000000E+00  0.00000000E+00
  0.00000000E+00  0.00000000E+00  0.00000000E+00  0.00000000E+00  0.00000000E+00
  0.00000000E+00  0.00000000E+00  0.00000000E+00  0.00000000E+00  0.00000000E+00
  0.00000000E+00  0.00000000E+00  0.00000000E+00  0.00000000E+00  0.00000000E+00
  0.00000000E+00  0.00000000E+00  0.00000000E+00  0.00000000E+00  0.00000000E+00
  0.00000000E+00  0.00000000E+00  0.00000000E+00  0.00000000E+00  0.00000000E+00
  0.00000000E+00  0.00000000E+00  0.00000000E+00  0.00000000E+00  0.00000000E+00
  0.00000000E+00  0.00000000E+00  0.00000000E+00  0.00000000E+00  0.00000000E+00
  0.00000000E+00  0.00000000E+00  0.00000000E+00  0.00000000E+00  0.00000000E+00
  0.00000000E+00  0.00000000E+00  0.00000000E+00  0.00000000E+00  0.00000000E+00
  0.00000000E+00  0.00000000E+00  0.00000000E+00  0.00000000E+00  0.00000000E+00
  0.00000000E+00  0.00000000E+00  0.00000000E+00  0.00000000E+00  0.00000000E+00
  0.00000000E+00  0.00000000E+00  0.00000000E+00  0.00000000E+00  0.00000000E+00
  0.00000000E+00  0.00000000E+00  0.00000000E+00  0.00000000E+00  0.00000000E+00
  0.00000000E+00  0.00000000E+00  0.00000000E+00  0.00000000E+00  0.00000000E+00
  0.00000000E+00  0.00000000E+00  0.00000000E+00  0.00000000E+00  0.00000000E+00
  0.00000000E+00  0.00000000E+00  0.00000000E+00  0.00000000E+00  0.00000000E+00
  0.00000000E+00  0.00000000E+00  0.00000000E+00  0.00000000E+00  0.00000000E+00
  0.00000000E+00  0.00000000E+00  0.00000000E+00  0.00000000E+00  0.00000000E+00
  0.00000000E+00  0.00000000E+00  0.00000000E+00  0.00000000E+00  0.00000000E+00
  0.00000000E+00  0.00000000E+00  0.00000000E+00  0.00000000E+00  0.00000000E+00
  0.00000000E+00  0.00000000E+00  0.00000000E+00  0.00000000E+00  0.00000000E+00
  0.00000000E+00  0.00000000E+00  0.00000000E+00  0.00000000E+00  0.00000000E+00
  0.00000000E+00  0.00000000E+00  0.00000000E+00  0.00000000E+00  0.00000000E+00
  0.00000000E+00  0.00000000E+00  0.00000000E+00  0.00000000E+00  0.00000000E+00
  0.00000000E+00  0.00000000E+00  0.00000000E+00  0.00000000E+00  0.00000000E+00
  0.00000000E+00  0.00000000E+00  0.00000000E+00  0.00000000E+00  0.00000000E+00
  0.00000000E+00  0.00000000E+00  0.00000000E+00  0.00000000E+00  0.00000000E+00
  0.00000000E+00  0.00000000E+00  0.00000000E+00  0.00000000E+00  0.00000000E+00
  0.00000000E+00  0.00000000E+00  0.00000000E+00  0.00000000E+00  0.00000000E+00
  0.00000000E+00  0.00000000E+00  0.00000000E+00  0.00000000E+00  0.00000000E+00
  0.00000000E+00  0.00000000E+00  0.00000000E+00  0.00000000E+00  0.00000000E+00
  0.00000000E+00  0.00000000E+00  0.00000000E+00  0.00000000E+00  0.00000000E+00
  0.00000000E+00  0.00000000E+00  0.00000000E+00  0.00000000E+00  0.00000000E+00
  0.00000000E+00  0.00000000E+00  0.00000000E+00  0.00000000E+00  0.00000000E+00
  0.00000000E+00  0.00000000E+00  0.00000000E+00  0.00000000E+00  0.00000000E+00
  0.00000000E+00  0.00000000E+00  0.00000000E+00  0.00000000E+00  0.00000000E+00
  0.00000000E+00  0.00000000E+00  0.00000000E+00  0.00000000E+00  0.00000000E+00
  0.00000000E+00  0.00000000E+00  0.00000000E+00  0.00000000E+00  0.00000000E+00
  0.00000000E+00  0.00000000E+00  0.00000000E+00  0.00000000E+00  0.00000000E+00
  0.00000000E+00  0.00000000E+00  0.00000000E+00  0.00000000E+00  0.00000000E+00
  0.00000000E+00  0.00000000E+00  0.00000000E+00  0.00000000E+00  0.00000000E+00
  0.00000000E+00  0.00000000E+00  0.00000000E+00  0.00000000E+00  0.00000000E+00
  0.00000000E+00  0.00000000E+00  0.00000000E+00  0.00000000E+00  0.00000000E+00
  0.00000000E+00  0.00000000E+00  0.00000000E+00  0.00000000E+00  0.00000000E+00
  0.00000000E+00  0.00000000E+00  0.00000000E+00  0.00000000E+00  0.00000000E+00
  0.00000000E+00  0.00000000E+00  0.00000000E+00  0.00000000E+00  0.00000000E+00
  0.00000000E+00  0.00000000E+00  0.00000000E+00  0.00000000E+00  0.00000000E+00
  0.00000000E+00  0.00000000E+00  0.00000000E+00  0.00000000E+00  0.00000000E+00
  0.00000000E+00  0.00000000E+00  0.00000000E+00  0.00000000E+00  0.00000000E+00
  0.00000000E+00  0.00000000E+00  0.00000000E+00  0.00000000E+00  0.00000000E+00
  0.00000000E+00  0.00000000E+00  0.00000000E+00  0.00000000E+00  0.00000000E+00
  0.00000000E+00  0.00000000E+00  0.00000000E+00  0.00000000E+00  0.00000000E+00
  0.00000000E+00  0.00000000E+00  0.00000000E+00  0.00000000E+00  0.00000000E+00
  0.00000000E+00  0.00000000E+00  0.00000000E+00  0.00000000E+00  0.00000000E+00
  0.00000000E+00  0.00000000E+00  0.00000000E+00  0.00000000E+00  0.00000000E+00
  0.00000000E+00  0.00000000E+00  0.00000000E+00  0.00000000E+00  0.00000000E+00
  0.00000000E+00  0.00000000E+00  0.00000000E+00  0.00000000E+00  0.00000000E+00
  0.00000000E+00  0.00000000E+00  0.00000000E+00  0.00000000E+00  0.00000000E+00
  0.00000000E+00  0.00000000E+00  0.00000000E+00  0.00000000E+00  0.00000000E+00
  0.00000000E+00  0.00000000E+00  0.00000000E+00  0.00000000E+00  0.00000000E+00
  0.00000000E+00  0.00000000E+00  0.00000000E+00  0.00000000E+00  0.00000000E+00
  0.00000000E+00  0.00000000E+00  0.00000000E+00  0.00000000E+00  0.00000000E+00
  0.00000000E+00  0.00000000E+00  0.00000000E+00  0.00000000E+00  0.00000000E+00
  0.00000000E+00  0.00000000E+00  0.00000000E+00  0.00000000E+00  0.00000000E+00
  0.00000000E+00  0.00000000E+00  0.00000000E+00  0.00000000E+00  0.00000000E+00
  0.00000000E+00  0.00000000E+00  0.00000000E+00  0.00000000E+00  0.00000000E+00
  0.00000000E+00  0.00000000E+00
MO    3                     OCC NO =   1.00000000 ORB. ENERGY = -56.71789366
  1.33793680E+01  1.19846199E+01  1.14103245E+01  9.78074607E+00  8.86271019E+00
  8.28343564E+00  7.93006547E+00  7.71458689E+00  7.80019038E+00  7.05628161E+00
  6.47421536E+00  3.92559750E+00  9.57707770E-01  1.69521008E+00  4.63710647E+00
  8.71646595E+00  8.68971122E+00  1.07844434E+00 -7.64430435E+00 -7.75738439E+00
 -3.32238537E+00  4.08245255E+00  2.64179731E+00  2.34051172E-01 -1.86489987E-02
  4.28860207E-03 -1.65145860E-03  2.98239608E-04 -3.42487788E-05  5.63552781E-06
  0.00000000E+00  0.00000000E+00  0.00000000E+00  0.00000000E+00  0.00000000E+00
  0.00000000E+00  0.00000000E+00  0.00000000E+00  0.00000000E+00  0.00000000E+00
  0.00000000E+00  0.00000000E+00  0.00000000E+00  0.00000000E+00  0.00000000E+00
  0.00000000E+00  0.00000000E+00  0.00000000E+00  0.00000000E+00  0.00000000E+00
  0.00000000E+00  0.00000000E+00  0.00000000E+00  0.00000000E+00  0.00000000E+00
  0.00000000E+00  0.00000000E+00  0.00000000E+00  0.00000000E+00  0.00000000E+00
  0.00000000E+00  0.00000000E+00  0.00000000E+00  0.00000000E+00  0.00000000E+00
  0.00000000E+00  0.00000000E+00  0.00000000E+00  0.00000000E+00  0.00000000E+00
  0.00000000E+00  0.00000000E+00  0.00000000E+00  0.00000000E+00  0.00000000E+00
  0.00000000E+00  0.00000000E+00  0.00000000E+00  0.00000000E+00  0.00000000E+00
  0.00000000E+00  0.00000000E+00  0.00000000E+00  0.00000000E+00  0.00000000E+00
  0.00000000E+00  0.00000000E+00  0.00000000E+00  0.00000000E+00  0.00000000E+00
  0.00000000E+00  0.00000000E+00  0.00000000E+00  0.00000000E+00  0.00000000E+00
  0.00000000E+00  0.00000000E+00  0.00000000E+00  0.00000000E+00  0.00000000E+00
  0.00000000E+00  0.00000000E+00  0.00000000E+00  0.00000000E+00  0.00000000E+00
  0.00000000E+00  0.00000000E+00  0.00000000E+00  0.00000000E+00  0.00000000E+00
  0.00000000E+00  0.00000000E+00  0.00000000E+00  0.00000000E+00  0.00000000E+00
  0.00000000E+00  0.00000000E+00  0.00000000E+00  0.00000000E+00  0.00000000E+00
  0.00000000E+00  0.00000000E+00  0.00000000E+00  0.00000000E+00  0.00000000E+00
  0.00000000E+00  0.00000000E+00  0.00000000E+00  0.00000000E+00  0.00000000E+00
  0.00000000E+00  0.00000000E+00  0.00000000E+00  0.00000000E+00  0.00000000E+00
  0.00000000E+00  0.00000000E+00  0.00000000E+00  0.00000000E+00  0.00000000E+00
  0.00000000E+00  0.00000000E+00  0.00000000E+00  0.00000000E+00  0.00000000E+00
  0.00000000E+00  0.00000000E+00  0.00000000E+00  0.00000000E+00  0.00000000E+00
  0.00000000E+00  0.00000000E+00  0.00000000E+00  0.00000000E+00  0.00000000E+00
  0.00000000E+00  0.00000000E+00  0.00000000E+00  0.00000000E+00  0.00000000E+00
  0.00000000E+00  0.00000000E+00  0.00000000E+00  0.00000000E+00  0.00000000E+00
  0.00000000E+00  0.00000000E+00  0.00000000E+00  0.00000000E+00  0.00000000E+00
  0.00000000E+00  0.00000000E+00  0.00000000E+00  0.00000000E+00  0.00000000E+00
  0.00000000E+00  0.00000000E+00  0.00000000E+00  0.00000000E+00  0.00000000E+00
  0.00000000E+00  0.00000000E+00  0.00000000E+00  0.00000000E+00  0.00000000E+00
  0.00000000E+00  0.00000000E+00  0.00000000E+00  0.00000000E+00  0.00000000E+00
  0.00000000E+00  0.00000000E+00  0.00000000E+00  0.00000000E+00  0.00000000E+00
  0.00000000E+00  0.00000000E+00  0.00000000E+00  0.00000000E+00  0.00000000E+00
  0.00000000E+00  0.00000000E+00  0.00000000E+00  0.00000000E+00  0.00000000E+00
  0.00000000E+00  0.00000000E+00  0.00000000E+00  0.00000000E+00  0.00000000E+00
  0.00000000E+00  0.00000000E+00  0.00000000E+00  0.00000000E+00  0.00000000E+00
  0.00000000E+00  0.00000000E+00  0.00000000E+00  0.00000000E+00  0.00000000E+00
  0.00000000E+00  0.00000000E+00  0.00000000E+00  0.00000000E+00  0.00000000E+00
  0.00000000E+00  0.00000000E+00  0.00000000E+00  0.00000000E+00  0.00000000E+00
  0.00000000E+00  0.00000000E+00  0.00000000E+00  0.00000000E+00  0.00000000E+00
  0.00000000E+00  0.00000000E+00  0.00000000E+00  0.00000000E+00  0.00000000E+00
  0.00000000E+00  0.00000000E+00  0.00000000E+00  0.00000000E+00  0.00000000E+00
  0.00000000E+00  0.00000000E+00  0.00000000E+00  0.00000000E+00  0.00000000E+00
  0.00000000E+00  0.00000000E+00  0.00000000E+00  0.00000000E+00  0.00000000E+00
  0.00000000E+00  0.00000000E+00  0.00000000E+00  0.00000000E+00  0.00000000E+00
  0.00000000E+00  0.00000000E+00  0.00000000E+00  0.00000000E+00  0.00000000E+00
  0.00000000E+00  0.00000000E+00  0.00000000E+00  0.00000000E+00  0.00000000E+00
  0.00000000E+00  0.00000000E+00  0.00000000E+00  0.00000000E+00  0.00000000E+00
  0.00000000E+00  0.00000000E+00  0.00000000E+00  0.00000000E+00  0.00000000E+00
  0.00000000E+00  0.00000000E+00  0.00000000E+00  0.00000000E+00  0.00000000E+00
  0.00000000E+00  0.00000000E+00  0.00000000E+00  0.00000000E+00  0.00000000E+00
  0.00000000E+00  0.00000000E+00  0.00000000E+00  0.00000000E+00  0.00000000E+00