atomref-proatoms Ne_q0_mult1_nist x2c-QZVPall
GAUSSIAN             10 MOL ORBITALS     95 PRIMITIVES        1 NUCLEI
  Ne   1    (CENTRE  1)   0.00000000  0.00000000  0.00000000  CHARGE = 10.0
CENTRE ASSIGNMENTS    1  1  1  1  1  1  1  1  1  1  1  1  1  1  1  1  1  1  1  1
CENTRE ASSIGNMENTS    1  1  1  1  1  1  1  1  1  1  1  1  1  1  1  1  1  1  1  1
CENTRE ASSIGNMENTS    1  1  1  1  1  1  1  1  1  1  1  1  1  1  1  1  1  1  1  1
CENTRE ASSIGNMENTS    1  1  1  1  1  1  1  1  1  1  1  1  1  1  1  1  1  1  1  1
CENTRE ASSIGNMENTS    1  1  1  1  1  1  1  1  1  1  1  1  1  1  1
TYPE ASSIGNMENTS      1  1  1  1  1  1  1  1  1  1  1  1  1  1  1  2  3  4  2  3
TYPE ASSIGNMENTS      4  2  3  4  2  3  4  2  3  4  2  3  4  2  3  4  2  3  4  2
TYPE ASSIGNMENTS      3  4  5  8  9  6 10  7  5  8  9  6 10  7  5  8  9  6 10  7
TYPE ASSIGNMENTS     11 14 15 17 20 18 12 16 19 13 11 14 15 17 20 18 12 16 19 13
TYPE ASSIGNMENTS     21 24 25 30 33 31 26 34 35 28 22 27 32 29 23
EXPONENTS  1.6081023E+05 2.3949434E+04 5.4380349E+03 1.5438536E+03 5.0816825E+02
EXPONENTS  1.8501676E+02 7.2552821E+01 3.0091572E+01 1.2068435E+02 3.6074160E+01
EXPONENTS  1.3056963E+01 5.8018898E+00 2.0482710E+00 8.0197884E-01 3.0552914E-01
EXPONENTS  4.9857463E+02 4.9857463E+02 4.9857463E+02 1.1812124E+02 1.1812124E+02
EXPONENTS  1.1812124E+02 3.8037445E+01 3.8037445E+01 3.8037445E+01 1.4182944E+01
EXPONENTS  1.4182944E+01 1.4182944E+01 5.7866582E+00 5.7866582E+00 5.7866582E+00
EXPONENTS  2.4599879E+00 2.4599879E+00 2.4599879E+00 1.0422190E+00 1.0422190E+00
EXPONENTS  1.0422190E+00 4.2987726E-01 4.2987726E-01 4.2987726E-01 1.6889708E-01
EXPONENTS  1.6889708E-01 1.6889708E-01 6.4710000E+00 6.4710000E+00 6.4710000E+00
EXPONENTS  6.4710000E+00 6.4710000E+00 6.4710000E+00 2.2130000E+00 2.2130000E+00
EXPONENTS  2.2130000E+00 2.2130000E+00 2.2130000E+00 2.2130000E+00 7.4700000E-01
EXPONENTS  7.4700000E-01 7.4700000E-01 7.4700000E-01 7.4700000E-01 7.4700000E-01
EXPONENTS  4.6570000E+00 4.6570000E+00 4.6570000E+00 4.6570000E+00 4.6570000E+00
EXPONENTS  4.6570000E+00 4.6570000E+00 4.6570000E+00 4.6570000E+00 4.6570000E+00
EXPONENTS  1.5240000E+00 1.5240000E+00 1.5240000E+00 1.5240000E+00 1.5240000E+00
EXPONENTS  1.5240000E+00 1.5240000E+00 1.5240000E+00 1.5240000E+00 1.5240000E+00
EXPONENTS  2.9830000E+00 2.9830000E+00 2.9830000E+00 2.9830000E+00 2.9830000E+00
EXPONENTS  2.9830000E+00 2.9830000E+00 2.9830000E+00 2.9830000E+00 2.9830000E+00
EXPONENTS  2.9830000E+00 2.9830000E+00 2.9830000E+00 2.9830000E+00 2.9830000E+00
MO    1                     OCC NO =   1.00000000 ORB. ENERGY = -31.09930109
  7.05687304E-01  7.57933168E-01  1.03948986E+00  1.51681496E+00  2.20931600E+00
  3.02354806E+00  3.58607450E+00  3.26163210E+00 -2.19728291E-02 -7.88093448E-02
  1.68087332E+00  3.51418565E-01  7.01999926E-03 -1.03376746E-04  2.78636496E-05
  0.00000000E+00  0.00000000E+00  0.00000000E+00  0.00000000E+00  0.00000000E+00
  0.00000000E+00  0.00000000E+00  0.00000000E+00  0.00000000E+00  0.00000000E+00
  0.00000000E+00  0.00000000E+00  0.00000000E+00  0.00000000E+00  0.00000000E+00
  0.00000000E+00  0.00000000E+00  0.00000000E+00  0.00000000E+00  0.00000000E+00
  0.00000000E+00  0.00000000E+00  0.00000000E+00  0.00000000E+00  0.00000000E+00
  0.00000000E+00  0.00000000E+00  0.00000000E+00  0.00000000E+00  0.00000000E+00
  0.00000000E+00  0.00000000E+00  0.00000000E+00  0.00000000E+00  0.00000000E+00
  0.00000000E+00  0.00000000E+00  0.00000000E+00  0.00000000E+00  0.00000000E+00
  0.00000000E+00  0.00000000E+00  0.00000000E+00  0.00000000E+00  0.00000000E+00
  0.00000000E+00  0.00000000E+00  0.00000000E+00  0.00000000E+00  0.00000000E+00
  0.00000000E+00  0.00000000E+00  0.00000000E+00  0.00000000E+00  0.00000000E+00
  0.00000000E+00  0.00000000E+00  0.00000000E+00  0.00000000E+00  0.00000000E+00
  0.00000000E+00  0.00000000E+00  0.00000000E+00  0.00000000E+00  0.00000000E+00
  0.00000000E+00  0.00000000E+00  0.00000000E+00  0.00000000E+00  0.00000000E+00
  0.00000000E+00  0.00000000E+00  0.00000000E+00  0.00000000E+00  0.00000000E+00
  0.00000000E+00  0.00000000E+00  0.00000000E+00  0.00000000E+00  0.00000000E+00
MO    2                     OCC NO =   1.00000000 ORB. ENERGY =  -1.49459301
 -1.70477526E-01 -1.83098903E-01 -2.51116405E-01 -3.66426973E-01 -5.33719006E-01
 -7.30418403E-01 -8.66311616E-01 -7.87933932E-01 -6.85431973E-02 -2.45842010E-01
 -8.17532895E-01 -1.16966326E-01  4.47615447E-01  3.27330648E-01  6.99616248E-02
  0.00000000E+00  0.00000000E+00  0.00000000E+00  0.00000000E+00  0.00000000E+00
  0.00000000E+00  0.00000000E+00  0.00000000E+00  0.00000000E+00  0.00000000E+00
  0.00000000E+00  0.00000000E+00  0.00000000E+00  0.00000000E+00  0.00000000E+00
  0.00000000E+00  0.00000000E+00  0.00000000E+00  0.00000000E+00  0.00000000E+00
  0.00000000E+00  0.00000000E+00  0.00000000E+00  0.00000000E+00  0.00000000E+00
  0.00000000E+00  0.00000000E+00  0.00000000E+00  0.00000000E+00  0.00000000E+00
  0.00000000E+00  0.00000000E+00  0.00000000E+00  0.00000000E+00  0.00000000E+00
  0.00000000E+00  0.00000000E+00  0.00000000E+00  0.00000000E+00  0.00000000E+00
  0.00000000E+00  0.00000000E+00  0.00000000E+00  0.00000000E+00  0.00000000E+00
  0.00000000E+00  0.00000000E+00  0.00000000E+00  0.00000000E+00  0.00000000E+00
  0.00000000E+00  0.00000000E+00  0.00000000E+00  0.00000000E+00  0.00000000E+00
  0.00000000E+00  0.00000000E+00  0.00000000E+00  0.00000000E+00  0.00000000E+00
  0.00000000E+00  0.00000000E+00  0.00000000E+00  0.00000000E+00  0.00000000E+00
  0.00000000E+00  0.00000000E+00  0.00000000E+00  0.00000000E+00  0.00000000E+00
  0.00000000E+00  0.00000000E+00  0.00000000E+00  0.00000000E+00  0.00000000E+00
  0.00000000E+00  0.00000000E+00  0.00000000E+00  0.00000000E+00  0.00000000E+00
MO    3                     OCC NO =   1.00000000 ORB. ENERGY =  -0.58657039
  0.00000000E+00  0.00000000E+00  0.00000000E+00  0.00000000E+00  0.00000000E+00
  0.00000000E+00  0.00000000E+00  0.00000000E+00  0.00000000E+00  0.00000000E+00
  0.00000000E+00  0.00000000E+00  0.00000000E+00  0.00000000E+00  0.00000000E+00
  1.57750345E+00  0.00000000E+00  0.00000000E+00  2.07434057E+00  0.00000000E+00
  0.00000000E+00  2.50770421E+00  0.00000000E+00  0.00000000E+00  2.59690386E+00
  0.00000000E+00  0.00000000E+00  2.16833854E+00  0.00000000E+00  0.00000000E+00
  1.30260962E+00  0.00000000E+00  0.00000000E+00  5.10835043E-01  0.00000000E+00
  0.00000000E+00  1.37082314E-01  0.00000000E+00  0.00000000E+00  1.75015179E-02
  0.00000000E+00  0.00000000E+00  0.00000000E+00  0.00000000E+00  0.00000000E+00
  0.00000000E+00  0.00000000E+00  0.00000000E+00  0.00000000E+00  0.00000000E+00
  0.00000000E+00  0.00000000E+00  0.00000000E+00  0.00000000E+00  0.00000000E+00
  0.00000000E+00  0.00000000E+00  0.00000000E+00  0.00000000E+00  0.00000000E+00
  0.00000000E+00  0.00000000E+00  0.00000000E+00  0.00000000E+00  0.00000000E+00
  0.00000000E+00  0.00000000E+00  0.00000000E+00  0.00000000E+00  0.00000000E+00
  0.00000000E+00  0.00000000E+00  0.00000000E+00  0.00000000E+00  0.00000000E+00
  0.00000000E+00  0.00000000E+00  0.00000000E+00  0.00000000E+00  0.00000000E+00
  0.00000000E+00  0.00000000E+00  0.00000000E+00  0.00000000E+00  0.00000000E+00
  0.00000000E+00  0.00000000E+00  0.00000000E+00  0.00000000E+00  0.00000000E+00
  0.00000000E+00  0.00000000E+00  0.00000000E+00  0.00000000E+00  0.00000000E+00
MO    4                     OCC NO =   1.00000000 ORB. ENERGY =  -0.58657039
  0.00000000E+00  0.00000000E+00  0.00000000E+00  0.00000000E+00  0.00000000E+00
  0.00000000E+00  0.00000000E+00  0.00000000E+00  0.00000000E+00  0.00000000E+00
  0.00000000E+00  0.00000000E+00  0.00000000E+00  0.00000000E+00  0.00000000E+00
  0.00000000E+00  1.57750345E+00  0.00000000E+00  0.00000000E+00  2.07434057E+00
  0.00000000E+00  0.00000000E+00  2.50770421E+00  0.00000000E+00  0.00000000E+00
  2.59690386E+00  0.00000000E+00  0.00000000E+00  2.16833854E+00  0.00000000E+00
  0.00000000E+00  1.30260962E+00  0.00000000E+00  0.00000000E+00  5.10835043E-01
  0.00000000E+00  0.00000000E+00  1.37082314E-01  0.00000000E+00  0.00000000E+00
  1.75015179E-02  0.00000000E+00  0.00000000E+00  0.00000000E+00  0.00000000E+00
  0.00000000E+00  0.00000000E+00  0.00000000E+00  0.00000000E+00  0.00000000E+00
  0.00000000E+00  0.00000000E+00  0.00000000E+00  0.00000000E+00  0.00000000E+00
  0.00000000E+00  0.00000000E+00  0.00000000E+00  0.00000000E+00  0.00000000E+00
  0.00000000E+00  0.00000000E+00  0.00000000E+00  0.00000000E+00  0.00000000E+00
  0.00000000E+00  0.00000000E+00  0.00000000E+00  0.00000000E+00  0.00000000E+00
  0.00000000E+00  0.00000000E+00  0.00000000E+00  0.00000000E+00  0.00000000E+00
  0.00000000E+00  0.00000000E+00  0.00000000E+00  0.00000000E+00  0.00000000E+00
  0.00000000E+00  0.00000000E+00  0.00000000E+00  0.00000000E+00  0.00000000E+00
  0.00000000E+00  0.00000000E+00  0.00000000E+00  0.00000000E+00  0.00000000E+00
  0.00000000E+00  0.00000000E+00  0.00000000E+00  0.00000000E+00  0.00000000E+00
MO    5                     OCC NO =   1.00000000 ORB. ENERGY =  -0.58657039
  0.00000000E+00  0.00000000E+00  0.00000000E+00  0.00000000E+00  0.00000000E+00
  0.00000000E+00  0.00000000E+00  0.00000000E+00  0.00000000E+00  0.00000000E+00
  0.00000000E+00  0.00000000E+00  0.00000000E+00  0.00000000E+00  0.00000000E+00
  0.00000000E+00  0.00000000E+00  1.57750345E+00  0.00000000E+00  0.00000000E+00
  2.07434057E+00  0.00000000E+00  0.00000000E+00  2.50770421E+00  0.00000000E+00
  0.00000000E+00  2.59690386E+00  0.00000000E+00  0.00000000E+00  2.16833854E+00
  0.00000000E+00  0.00000000E+00  1.30260962E+00  0.00000000E+00  0.00000000E+00
  5.10835043E-01  0.00000000E+00  0.00000000E+00  1.37082314E-01  0.00000000E+00
  0.00000000E+00  1.75015179E-02  0.00000000E+00  0.00000000E+00  0.00000000E+00
  0.00000000E+00  0.00000000E+00  0.00000000E+00  0.00000000E+00  0.00000000E+00
  0.00000000E+00  0.00000000E+00  0.00000000E+00  0.00000000E+00  0.00000000E+00
  0.00000000E+00  0.00000000E+00  0.00000000E+00  0.00000000E+00  0.00000000E+00
  0.00000000E+00  0.00000000E+00  0.00000000E+00  0.00000000E+00  0.00000000E+00
  0.00000000E+00  0.00000000E+00  0.00000000E+00  0.00000000E+00  0.00000000E+00
  0.00000000E+00  0.00000000E+00  0.00000000E+00  0.00000000E+00  0.00000000E+00
  0.00000000E+00  0.00000000E+00  0.00000000E+00  0.00000000E+00  0.00000000E+00
  0.00000000E+00  0.00000000E+00  0.00000000E+00  0.00000000E+00  0.00000000E+00
  0.00000000E+00  0.00000000E+00  0.00000000E+00  0.00000000E+00  0.00000000E+00
  0.00000000E+00  0.00000000E+00  0.00000000E+00  0.00000000E+00  0.00000000E+00
MO    7                     OCC NO =   1.00000000 ORB. ENERGY = -31.09930109
  7.05687304E-01  7.57933168E-01  1.03948986E+00  1.51681496E+00  2.20931600E+00
  3.02354806E+00  3.58607450E+00  3.26163210E+00 -2.19728291E-02 -7.88093448E-02
  1.68087332E+00  3.51418565E-01  7.01999926E-03 -1.03376746E-04  2.78636496E-05
  0.00000000E+00  0.00000000E+00  0.00000000E+00  0.00000000E+00  0.00000000E+00
  0.00000000E+00  0.00000000E+00  0.00000000E+00  0.00000000E+00  0.00000000E+00
  0.00000000E+00  0.00000000E+00  0.00000000E+00  0.00000000E+00  0.00000000E+00
  0.00000000E+00  0.00000000E+00  0.00000000E+00  0.00000000E+00  0.00000000E+00
  0.00000000E+00  0.00000000E+00  0.00000000E+00  0.00000000E+00  0.00000000E+00
  0.00000000E+00  0.00000000E+00  0.00000000E+00  0.00000000E+00  0.00000000E+00
  0.00000000E+00  0.00000000E+00  0.00000000E+00  0.00000000E+00  0.00000000E+00
  0.00000000E+00  0.00000000E+00  0.00000000E+00  0.00000000E+00  0.00000000E+00
  0.00000000E+00  0.00000000E+00  0.00000000E+00  0.00000000E+00  0.00000000E+00
  0.00000000E+00  0.00000000E+00  0.00000000E+00  0.00000000E+00  0.00000000E+00
  0.00000000E+00  0.00000000E+00  0.00000000E+00  0.00000000E+00  0.00000000E+00
  0.00000000E+00  0.00000000E+00  0.00000000E+00  0.00000000E+00  0.00000000E+00
  0.00000000E+00  0.00000000E+00  0.00000000E+00  0.00000000E+00  0.00000000E+00
  0.00000000E+00  0.00000000E+00  0.00000000E+00  0.00000000E+00  0.00000000E+00
  0.00000000E+00  0.00000000E+00  0.00000000E+00  0.00000000E+00  0.00000000E+00
  0.00000000E+00  0.00000000E+00  0.00000000E+00  0.00000000E+00  0.00000000E+00
MO    8                     OCC NO =   1.00000000 ORB. ENERGY =  -1.49459301
 -1.70477526E-01 -1.83098903E-01 -2.51116405E-01 -3.66426973E-01 -5.33719006E-01
 -7.30418403E-01 -8.66311616E-01 -7.87933932E-01 -6.85431973E-02 -2.45842010E-01
 -8.17532895E-01 -1.16966326E-01  4.47615447E-01  3.27330648E-01  6.99616248E-02
  0.00000000E+00  0.00000000E+00  0.00000000E+00  0.00000000E+00  0.00000000E+00
  0.00000000E+00  0.00000000E+00  0.00000000E+00  0.00000000E+00  0.00000000E+00
  0.00000000E+00  0.00000000E+00  0.00000000E+00  0.00000000E+00  0.00000000E+00
  0.00000000E+00  0.00000000E+00  0.00000000E+00  0.00000000E+00  0.00000000E+00
  0.00000000E+00  0.00000000E+00  0.00000000E+00  0.00000000E+00  0.00000000E+00
  0.00000000E+00  0.00000000E+00  0.00000000E+00  0.00000000E+00  0.00000000E+00
  0.00000000E+00  0.00000000E+00  0.00000000E+00  0.00000000E+00  0.00000000E+00
  0.00000000E+00  0.00000000E+00  0.00000000E+00  0.00000000E+00  0.00000000E+00
  0.00000000E+00  0.00000000E+00  0.00000000E+00  0.00000000E+00  0.00000000E+00
  0.00000000E+00  0.00000000E+00  0.00000000E+00  0.00000000E+00  0.00000000E+00
  0.00000000E+00  0.00000000E+00  0.00000000E+00  0.00000000E+00  0.00000000E+00
  0.00000000E+00  0.00000000E+00  0.00000000E+00  0.00000000E+00  0.00000000E+00
  0.00000000E+00  0.00000000E+00  0.00000000E+00  0.00000000E+00  0.00000000E+00
  0.00000000E+00  0.00000000E+00  0.00000000E+00  0.00000000E+00  0.00000000E+00
  0.00000000E+00  0.00000000E+00  0.00000000E+00  0.00000000E+00  0.00000000E+00
  0.00000000E+00  0.00000000E+00  0.00000000E+00  0.00000000E+00  0.00000000E+00
MO    9                     OCC NO =   1.00000000 ORB. ENERGY =  -0.58657039
  0.00000000E+00  0.00000000E+00  0.00000000E+00  0.00000000E+00  0.00000000E+00
  0.00000000E+00  0.00000000E+00  0.00000000E+00  0.00000000E+00  0.00000000E+00
  0.00000000E+00  0.00000000E+00  0.00000000E+00  0.00000000E+00  0.00000000E+00
  1.57750345E+00  0.00000000E+00  0.00000000E+00  2.07434057E+00  0.00000000E+00
  0.00000000E+00  2.50770421E+00  0.00000000E+00  0.00000000E+00  2.59690386E+00
  0.00000000E+00  0.00000000E+00  2.16833854E+00  0.00000000E+00  0.00000000E+00
  1.30260962E+00  0.00000000E+00  0.00000000E+00  5.10835043E-01  0.00000000E+00
  0.00000000E+00  1.37082314E-01  0.00000000E+00  0.00000000E+00  1.75015179E-02
  0.00000000E+00  0.00000000E+00  0.00000000E+00  0.00000000E+00  0.00000000E+00
  0.00000000E+00  0.00000000E+00  0.00000000E+00  0.00000000E+00  0.00000000E+00
  0.00000000E+00  0.00000000E+00  0.00000000E+00  0.00000000E+00  0.00000000E+00
  0.00000000E+00  0.00000000E+00  0.00000000E+00  0.00000000E+00  0.00000000E+00
  0.00000000E+00  0.00000000E+00  0.00000000E+00  0.00000000E+00  0.00000000E+00
  0.00000000E+00  0.00000000E+00  0.00000000E+00  0.00000000E+00  0.00000000E+00
  0.00000000E+00  0.00000000E+00  0.00000000E+00  0.00000000E+00  0.00000000E+00
  0.00000000E+00  0.00000000E+00  0.00000000E+00  0.00000000E+00  0.00000000E+00
  0.00000000E+00  0.00000000E+00  0.00000000E+00  0.00000000E+00  0.00000000E+00
  0.00000000E+00  0.00000000E+00  0.00000000E+00  0.00000000E+00  0.00000000E+00
  0.00000000E+00  0.00000000E+00  0.00000000E+00  0.00000000E+00  0.00000000E+00
MO   10                     OCC NO =   1.00000000 ORB. ENERGY =  -0.58657039
  0.00000000E+00  0.00000000E+00  0.00000000E+00  0.00000000E+00  0.00000000E+00
  0.00000000E+00  0.00000000E+00  0.00000000E+00  0.00000000E+00  0.00000000E+00
  0.00000000E+00  0.00000000E+00  0.00000000E+00  0.00000000E+00  0.00000000E+00
  0.00000000E+00  1.57750345E+00  0.00000000E+00  0.00000000E+00  2.07434057E+00
  0.00000000E+00  0.00000000E+00  2.50770421E+00  0.00000000E+00  0.00000000E+00
  2.59690386E+00  0.00000000E+00  0.00000000E+00  2.16833854E+00  0.00000000E+00
  0.00000000E+00  1.30260962E+00  0.00000000E+00  0.00000000E+00  5.10835043E-01
  0.00000000E+00  0.00000000E+00  1.37082314E-01  0.00000000E+00  0.00000000E+00
  1.75015179E-02  0.00000000E+00  0.00000000E+00  0.00000000E+00  0.00000000E+00
  0.00000000E+00  0.00000000E+00  0.00000000E+00  0.00000000E+00  0.00000000E+00
  0.00000000E+00  0.00000000E+00  0.00000000E+00  0.00000000E+00  0.00000000E+00
  0.00000000E+00  0.00000000E+00  0.00000000E+00  0.00000000E+00  0.00000000E+00
  0.00000000E+00  0.00000000E+00  0.00000000E+00  0.00000000E+00  0.00000000E+00
  0.00000000E+00  0.00000000E+00  0.00000000E+00  0.00000000E+00  0.00000000E+00
  0.00000000E+00  0.00000000E+00  0.00000000E+00  0.00000000E+00  0.00000000E+00
  0.00000000E+00  0.00000000E+00  0.00000000E+00  0.00000000E+00  0.00000000E+00
  0.00000000E+00  0.00000000E+00  0.00000000E+00  0.00000000E+00  0.00000000E+00
  0.00000000E+00  0.00000000E+00  0.00000000E+00  0.00000000E+00  0.00000000E+00
  0.00000000E+00  0.00000000E+00  0.00000000E+00  0.00000000E+00  0.00000000E+00
MO   11                    OCC NO =   1.00000000 ORB. ENERGY =  -0.58657039
  0.00000000E+00  0.00000000E+00  0.00000000E+00  0.00000000E+00  0.00000000E+00
  0.00000000E+00  0.00000000E+00  0.00000000E+00  0.00000000E+00  0.00000000E+00
  0.00000000E+00  0.00000000E+00  0.00000000E+00  0.00000000E+00  0.00000000E+00
  0.00000000E+00  0.00000000E+00  1.57750345E+00  0.00000000E+00  0.00000000E+00
  2.07434057E+00  0.00000000E+00  0.00000000E+00  2.50770421E+00  0.00000000E+00
  0.00000000E+00  2.59690386E+00  0.00000000E+00  0.00000000E+00  2.16833854E+00
  0.00000000E+00  0.00000000E+00  1.30260962E+00  0.00000000E+00  0.00000000E+00
  5.10835043E-01  0.00000000E+00  0.00000000E+00  1.37082314E-01  0.00000000E+00
  0.00000000E+00  1.75015179E-02  0.00000000E+00  0.00000000E+00  0.00000000E+00
  0.00000000E+00  0.00000000E+00  0.00000000E+00  0.00000000E+00  0.00000000E+00
  0.00000000E+00  0.00000000E+00  0.00000000E+00  0.00000000E+00  0.00000000E+00
  0.00000000E+00  0.00000000E+00  0.00000000E+00  0.00000000E+00  0.00000000E+00
  0.00000000E+00  0.00000000E+00  0.00000000E+00  0.00000000E+00  0.00000000E+00
  0.00000000E+00  0.00000000E+00  0.00000000E+00  0.00000000E+00  0.00000000E+00
  0.00000000E+00  0.00000000E+00  0.00000000E+00  0.00000000E+00  0.00000000E+00
  0.00000000E+00  0.00000000E+00  0.00000000E+00  0.00000000E+00  0.00000000E+00
  0.00000000E+00  0.00000000E+00  0.00000000E+00  0.00000000E+00  0.00000000E+00
  0.00000000E+00  0.00000000E+00  0.00000000E+00  0.00000000E+00  0.00000000E+00
  0.00000000E+00  0.00000000E+00  0.00000000E+00  0.00000000E+00  0.00000000E+00
END DATA
SCF      ENERGY =    -129.010710643540   VIRIAL(-V/T)  =   2.00000000

$MOSPIN
 1 1 1 1 1 2 2 2 2 2
$END
