atomref-proatoms Ni_q0_mult3_nist x2c-QZVPall
GAUSSIAN             30 MOL ORBITALS    199 PRIMITIVES        1 NUCLEI
  Ni   1    (CENTRE  1)   0.00000000  0.00000000  0.00000000  CHARGE = 28.0
CENTRE ASSIGNMENTS    1  1  1  1  1  1  1  1  1  1  1  1  1  1  1  1  1  1  1  1
CENTRE ASSIGNMENTS    1  1  1  1  1  1  1  1  1  1  1  1  1  1  1  1  1  1  1  1
CENTRE ASSIGNMENTS    1  1  1  1  1  1  1  1  1  1  1  1  1  1  1  1  1  1  1  1
CENTRE ASSIGNMENTS    1  1  1  1  1  1  1  1  1  1  1  1  1  1  1  1  1  1  1  1
CENTRE ASSIGNMENTS    1  1  1  1  1  1  1  1  1  1  1  1  1  1  1  1  1  1  1  1
CENTRE ASSIGNMENTS    1  1  1  1  1  1  1  1  1  1  1  1  1  1  1  1  1  1  1  1
CENTRE ASSIGNMENTS    1  1  1  1  1  1  1  1  1  1  1  1  1  1  1  1  1  1  1  1
CENTRE ASSIGNMENTS    1  1  1  1  1  1  1  1  1  1  1  1  1  1  1  1  1  1  1  1
CENTRE ASSIGNMENTS    1  1  1  1  1  1  1  1  1  1  1  1  1  1  1  1  1  1  1  1
CENTRE ASSIGNMENTS    1  1  1  1  1  1  1  1  1  1  1  1  1  1  1  1  1  1  1
TYPE ASSIGNMENTS      1  1  1  1  1  1  1  1  1  1  1  1  1  1  1  1  1  1  1  1
TYPE ASSIGNMENTS      1  1  1  1  2  3  4  2  3  4  2  3  4  2  3  4  2  3  4  2
TYPE ASSIGNMENTS      3  4  2  3  4  2  3  4  2  3  4  2  3  4  2  3  4  2  3  4
TYPE ASSIGNMENTS      2  3  4  2  3  4  2  3  4  2  3  4  2  3  4  2  3  4  2  3
TYPE ASSIGNMENTS      4  2  3  4  5  8  9  6 10  7  5  8  9  6 10  7  5  8  9  6
TYPE ASSIGNMENTS     10  7  5  8  9  6 10  7  5  8  9  6 10  7  5  8  9  6 10  7
TYPE ASSIGNMENTS      5  8  9  6 10  7  5  8  9  6 10  7  5  8  9  6 10  7  5  8
TYPE ASSIGNMENTS      9  6 10  7 11 14 15 17 20 18 12 16 19 13 11 14 15 17 20 18
TYPE ASSIGNMENTS     12 16 19 13 11 14 15 17 20 18 12 16 19 13 11 14 15 17 20 18
TYPE ASSIGNMENTS     12 16 19 13 21 24 25 30 33 31 26 34 35 28 22 27 32 29 23
EXPONENTS  1.2578500E+07 1.6064856E+06 3.2628203E+05 8.5444151E+04 2.6360867E+04
EXPONENTS  9.1990836E+03 3.5433497E+03 1.4233489E+03 6.2168917E+02 2.9503345E+02
EXPONENTS  1.4724358E+02 1.7425085E+03 5.2807079E+02 2.0248870E+02 8.9150916E+01
EXPONENTS  4.2701371E+01 1.9640261E+01 9.3021594E+00 4.0005846E+00 1.9073366E+00
EXPONENTS  8.3181031E-01 1.7741694E-01 8.2117984E-02 3.5501838E-02 4.0289207E+04
EXPONENTS  4.0289207E+04 4.0289207E+04 9.6626946E+03 9.6626946E+03 9.6626946E+03
EXPONENTS  2.6580993E+03 2.6580993E+03 2.6580993E+03 8.3870178E+02 8.3870178E+02
EXPONENTS  8.3870178E+02 3.0353400E+02 3.0353400E+02 3.0353400E+02 1.2654901E+02
EXPONENTS  1.2654901E+02 1.2654901E+02 5.5443194E+01 5.5443194E+01 5.5443194E+01
EXPONENTS  2.5503497E+01 2.5503497E+01 2.5503497E+01 1.2112967E+01 1.2112967E+01
EXPONENTS  1.2112967E+01 5.6300021E+00 5.6300021E+00 5.6300021E+00 1.7900000E+01
EXPONENTS  1.7900000E+01 1.7900000E+01 7.5340659E+01 7.5340659E+01 7.5340659E+01
EXPONENTS  2.7184238E+01 2.7184238E+01 2.7184238E+01 5.4316418E+00 5.4316418E+00
EXPONENTS  5.4316418E+00 2.5096341E+00 2.5096341E+00 2.5096341E+00 1.1289548E+00
EXPONENTS  1.1289548E+00 1.1289548E+00 4.6834977E-01 4.6834977E-01 4.6834977E-01
EXPONENTS  1.8700000E-01 1.8700000E-01 1.8700000E-01 7.6200000E-02 7.6200000E-02
EXPONENTS  7.6200000E-02 3.1000000E-02 3.1000000E-02 3.1000000E-02 2.6470656E+02
EXPONENTS  2.6470656E+02 2.6470656E+02 2.6470656E+02 2.6470656E+02 2.6470656E+02
EXPONENTS  7.8697046E+01 7.8697046E+01 7.8697046E+01 7.8697046E+01 7.8697046E+01
EXPONENTS  7.8697046E+01 3.0052205E+01 3.0052205E+01 3.0052205E+01 3.0052205E+01
EXPONENTS  3.0052205E+01 3.0052205E+01 1.2742267E+01 1.2742267E+01 1.2742267E+01
EXPONENTS  1.2742267E+01 1.2742267E+01 1.2742267E+01 5.7540048E+00 5.7540048E+00
EXPONENTS  5.7540048E+00 5.7540048E+00 5.7540048E+00 5.7540048E+00 2.6248803E+00
EXPONENTS  2.6248803E+00 2.6248803E+00 2.6248803E+00 2.6248803E+00 2.6248803E+00
EXPONENTS  1.1632167E+00 1.1632167E+00 1.1632167E+00 1.1632167E+00 1.1632167E+00
EXPONENTS  1.1632167E+00 4.8780052E-01 4.8780052E-01 4.8780052E-01 4.8780052E-01
EXPONENTS  4.8780052E-01 4.8780052E-01 1.8460707E-01 1.8460707E-01 1.8460707E-01
EXPONENTS  1.8460707E-01 1.8460707E-01 1.8460707E-01 7.1000000E-02 7.1000000E-02
EXPONENTS  7.1000000E-02 7.1000000E-02 7.1000000E-02 7.1000000E-02 6.7580000E+00
EXPONENTS  6.7580000E+00 6.7580000E+00 6.7580000E+00 6.7580000E+00 6.7580000E+00
EXPONENTS  6.7580000E+00 6.7580000E+00 6.7580000E+00 6.7580000E+00 2.1740000E+00
EXPONENTS  2.1740000E+00 2.1740000E+00 2.1740000E+00 2.1740000E+00 2.1740000E+00
EXPONENTS  2.1740000E+00 2.1740000E+00 2.1740000E+00 2.1740000E+00 6.8100000E-01
EXPONENTS  6.8100000E-01 6.8100000E-01 6.8100000E-01 6.8100000E-01 6.8100000E-01
EXPONENTS  6.8100000E-01 6.8100000E-01 6.8100000E-01 6.8100000E-01 2.1300000E-01
EXPONENTS  2.1300000E-01 2.1300000E-01 2.1300000E-01 2.1300000E-01 2.1300000E-01
EXPONENTS  2.1300000E-01 2.1300000E-01 2.1300000E-01 2.1300000E-01 1.5580000E+00
EXPONENTS  1.5580000E+00 1.5580000E+00 1.5580000E+00 1.5580000E+00 1.5580000E+00
EXPONENTS  1.5580000E+00 1.5580000E+00 1.5580000E+00 1.5580000E+00 1.5580000E+00
EXPONENTS  1.5580000E+00 1.5580000E+00 1.5580000E+00 1.5580000E+00
MO    1                     OCC NO =   1.00000000 ORB. ENERGY = -303.35326605
  1.03865235E+01  7.64058717E+00  6.70170987E+00  6.75970105E+00  7.57112003E+00
  9.02510325E+00  1.11688178E+01  1.35839813E+01  1.36116460E+01  1.06339779E+01
  4.66030569E+00  7.01938321E-01  2.48856934E+00  5.21341630E+00  5.07000734E+00
  1.05768222E+00 -2.77817332E-02  1.75700587E-02 -5.62999033E-03  1.81527183E-03
 -3.47375490E-04  4.09300630E-05 -1.75750849E-05  2.92495974E-06  0.00000000E+00
  0.00000000E+00  0.00000000E+00  0.00000000E+00  0.00000000E+00  0.00000000E+00
  0.00000000E+00  0.00000000E+00  0.00000000E+00  0.00000000E+00  0.00000000E+00
  0.00000000E+00  0.00000000E+00  0.00000000E+00  0.00000000E+00  0.00000000E+00
  0.00000000E+00  0.00000000E+00  0.00000000E+00  0.00000000E+00  0.00000000E+00
  0.00000000E+00  0.00000000E+00  0.00000000E+00  0.00000000E+00  0.00000000E+00
  0.00000000E+00  0.00000000E+00  0.00000000E+00  0.00000000E+00  0.00000000E+00
  0.00000000E+00  0.00000000E+00  0.00000000E+00  0.00000000E+00  0.00000000E+00
  0.00000000E+00  0.00000000E+00  0.00000000E+00  0.00000000E+00  0.00000000E+00
  0.00000000E+00  0.00000000E+00  0.00000000E+00  0.00000000E+00  0.00000000E+00
  0.00000000E+00  0.00000000E+00  0.00000000E+00  0.00000000E+00  0.00000000E+00
  0.00000000E+00  0.00000000E+00  0.00000000E+00  0.00000000E+00  0.00000000E+00
  0.00000000E+00  0.00000000E+00  0.00000000E+00  0.00000000E+00  0.00000000E+00
  0.00000000E+00  0.00000000E+00  0.00000000E+00  0.00000000E+00  0.00000000E+00
  0.00000000E+00  0.00000000E+00  0.00000000E+00  0.00000000E+00  0.00000000E+00
  0.00000000E+00  0.00000000E+00  0.00000000E+00  0.00000000E+00  0.00000000E+00
  0.00000000E+00  0.00000000E+00  0.00000000E+00  0.00000000E+00  0.00000000E+00
  0.00000000E+00  0.00000000E+00  0.00000000E+00  0.00000000E+00  0.00000000E+00
  0.00000000E+00  0.00000000E+00  0.00000000E+00  0.00000000E+00  0.00000000E+00
  0.00000000E+00  0.00000000E+00  0.00000000E+00  0.00000000E+00  0.00000000E+00
  0.00000000E+00  0.00000000E+00  0.00000000E+00  0.00000000E+00  0.00000000E+00
  0.00000000E+00  0.00000000E+00  0.00000000E+00  0.00000000E+00  0.00000000E+00
  0.00000000E+00  0.00000000E+00  0.00000000E+00  0.00000000E+00  0.00000000E+00
  0.00000000E+00  0.00000000E+00  0.00000000E+00  0.00000000E+00  0.00000000E+00
  0.00000000E+00  0.00000000E+00  0.00000000E+00  0.00000000E+00  0.00000000E+00
  0.00000000E+00  0.00000000E+00  0.00000000E+00  0.00000000E+00  0.00000000E+00
  0.00000000E+00  0.00000000E+00  0.00000000E+00  0.00000000E+00  0.00000000E+00
  0.00000000E+00  0.00000000E+00  0.00000000E+00  0.00000000E+00  0.00000000E+00
  0.00000000E+00  0.00000000E+00  0.00000000E+00  0.00000000E+00  0.00000000E+00
  0.00000000E+00  0.00000000E+00  0.00000000E+00  0.00000000E+00  0.00000000E+00
  0.00000000E+00  0.00000000E+00  0.00000000E+00  0.00000000E+00  0.00000000E+00
  0.00000000E+00  0.00000000E+00  0.00000000E+00  0.00000000E+00  0.00000000E+00
  0.00000000E+00  0.00000000E+00  0.00000000E+00  0.00000000E+00  0.00000000E+00
  0.00000000E+00  0.00000000E+00  0.00000000E+00  0.00000000E+00  0.00000000E+00
  0.00000000E+00  0.00000000E+00  0.00000000E+00  0.00000000E+00  0.00000000E+00
  0.00000000E+00  0.00000000E+00  0.00000000E+00  0.00000000E+00
MO    2                     OCC NO =   1.00000000 ORB. ENERGY = -36.74877974
 -3.28868369E+00 -2.41923820E+00 -2.12196159E+00 -2.14032334E+00 -2.39724283E+00
 -2.85761736E+00 -3.53638144E+00 -4.30109437E+00 -4.30985386E+00 -3.36703516E+00
 -1.47559203E+00 -5.16854324E-01 -1.83239437E+00 -3.83876571E+00 -3.73317019E+00
  2.67910917E-01  3.30144026E+00  1.99600495E+00  2.24172946E-01 -1.29314977E-02
  2.40712396E-03 -2.45622402E-04  1.05154907E-04 -1.74839490E-05  0.00000000E+00
  0.00000000E+00  0.00000000E+00  0.00000000E+00  0.00000000E+00  0.00000000E+00
  0.00000000E+00  0.00000000E+00  0.00000000E+00  0.00000000E+00  0.00000000E+00
  0.00000000E+00  0.00000000E+00  0.00000000E+00  0.00000000E+00  0.00000000E+00
  0.00000000E+00  0.00000000E+00  0.00000000E+00  0.00000000E+00  0.00000000E+00
  0.00000000E+00  0.00000000E+00  0.00000000E+00  0.00000000E+00  0.00000000E+00
  0.00000000E+00  0.00000000E+00  0.00000000E+00  0.00000000E+00  0.00000000E+00
  0.00000000E+00  0.00000000E+00  0.00000000E+00  0.00000000E+00  0.00000000E+00
  0.00000000E+00  0.00000000E+00  0.00000000E+00  0.00000000E+00  0.00000000E+00
  0.00000000E+00  0.00000000E+00  0.00000000E+00  0.00000000E+00  0.00000000E+00
  0.00000000E+00  0.00000000E+00  0.00000000E+00  0.00000000E+00  0.00000000E+00
  0.00000000E+00  0.00000000E+00  0.00000000E+00  0.00000000E+00  0.00000000E+00
  0.00000000E+00  0.00000000E+00  0.00000000E+00  0.00000000E+00  0.00000000E+00
  0.00000000E+00  0.00000000E+00  0.00000000E+00  0.00000000E+00  0.00000000E+00
  0.00000000E+00  0.00000000E+00  0.00000000E+00  0.00000000E+00  0.00000000E+00
  0.00000000E+00  0.00000000E+00  0.00000000E+00  0.00000000E+00  0.00000000E+00
  0.00000000E+00  0.00000000E+00  0.00000000E+00  0.00000000E+00  0.00000000E+00
  0.00000000E+00  0.00000000E+00  0.00000000E+00  0.00000000E+00  0.00000000E+00
  0.00000000E+00  0.00000000E+00  0.00000000E+00  0.00000000E+00  0.00000000E+00
  0.00000000E+00  0.00000000E+00  0.00000000E+00  0.00000000E+00  0.00000000E+00
  0.00000000E+00  0.00000000E+00  0.00000000E+00  0.00000000E+00  0.00000000E+00
  0.00000000E+00  0.00000000E+00  0.00000000E+00  0.00000000E+00  0.00000000E+00
  0.00000000E+00  0.00000000E+00  0.00000000E+00  0.00000000E+00  0.00000000E+00
  0.00000000E+00  0.00000000E+00  0.00000000E+00  0.00000000E+00  0.00000000E+00
  0.00000000E+00  0.00000000E+00  0.00000000E+00  0.00000000E+00  0.00000000E+00
  0.00000000E+00  0.00000000E+00  0.00000000E+00  0.00000000E+00  0.00000000E+00
  0.00000000E+00  0.00000000E+00  0.00000000E+00  0.00000000E+00  0.00000000E+00
  0.00000000E+00  0.00000000E+00  0.00000000E+00  0.00000000E+00  0.00000000E+00
  0.00000000E+00  0.00000000E+00  0.00000000E+00  0.00000000E+00  0.00000000E+00
  0.00000000E+00  0.00000000E+00  0.00000000E+00  0.00000000E+00  0.00000000E+00
  0.00000000E+00  0.00000000E+00  0.00000000E+00  0.00000000E+00  0.00000000E+00
  0.00000000E+00  0.00000000E+00  0.00000000E+00  0.00000000E+00  0.00000000E+00
  0.00000000E+00  0.00000000E+00  0.00000000E+00  0.00000000E+00  0.00000000E+00
  0.00000000E+00  0.00000000E+00  0.00000000E+00  0.00000000E+00  0.00000000E+00
  0.00000000E+00  0.00000000E+00  0.00000000E+00  0.00000000E+00  0.00000000E+00
  0.00000000E+00  0.00000000E+00  0.00000000E+00  0.00000000E+00
MO    3                     OCC NO =   1.00000000 ORB. ENERGY =  -4.38644682
  1.25443370E+00  9.22792894E-01  8.09399867E-01  8.16403759E-01  9.14402991E-01
  1.09000800E+00  1.34891540E+00  1.64060708E+00  1.64394829E+00  1.28432004E+00
  5.62849016E-01  2.18358051E-01  7.74140883E-01  1.62178270E+00  1.57717122E+00
 -1.27225762E-01 -2.02563799E+00 -1.79579383E+00  2.64397313E-01  8.43329575E-01
  2.44396308E-01  3.66436061E-03 -1.01921535E-03  1.45831446E-04  0.00000000E+00
  0.00000000E+00  0.00000000E+00  0.00000000E+00  0.00000000E+00  0.00000000E+00
  0.00000000E+00  0.00000000E+00  0.00000000E+00  0.00000000E+00  0.00000000E+00
  0.00000000E+00  0.00000000E+00  0.00000000E+00  0.00000000E+00  0.00000000E+00
  0.00000000E+00  0.00000000E+00  0.00000000E+00  0.00000000E+00  0.00000000E+00
  0.00000000E+00  0.00000000E+00  0.00000000E+00  0.00000000E+00  0.00000000E+00
  0.00000000E+00  0.00000000E+00  0.00000000E+00  0.00000000E+00  0.00000000E+00
  0.00000000E+00  0.00000000E+00  0.00000000E+00  0.00000000E+00  0.00000000E+00
  0.00000000E+00  0.00000000E+00  0.00000000E+00  0.00000000E+00  0.00000000E+00
  0.00000000E+00  0.00000000E+00  0.00000000E+00  0.00000000E+00  0.00000000E+00
  0.00000000E+00  0.00000000E+00  0.00000000E+00  0.00000000E+00  0.00000000E+00
  0.00000000E+00  0.00000000E+00  0.00000000E+00  0.00000000E+00  0.00000000E+00
  0.00000000E+00  0.00000000E+00  0.00000000E+00  0.00000000E+00  0.00000000E+00
  0.00000000E+00  0.00000000E+00  0.00000000E+00  0.00000000E+00  0.00000000E+00
  0.00000000E+00  0.00000000E+00  0.00000000E+00  0.00000000E+00  0.00000000E+00
  0.00000000E+00  0.00000000E+00  0.00000000E+00  0.00000000E+00  0.00000000E+00
  0.00000000E+00  0.00000000E+00  0.00000000E+00  0.00000000E+00  0.00000000E+00
  0.00000000E+00  0.00000000E+00  0.00000000E+00  0.00000000E+00  0.00000000E+00
  0.00000000E+00  0.00000000E+00  0.00000000E+00  0.00000000E+00  0.00000000E+00
  0.00000000E+00  0.00000000E+00  0.00000000E+00  0.00000000E+00  0.00000000E+00
  0.00000000E+00  0.00000000E+00  0.00000000E+00  0.00000000E+00  0.00000000E+00
  0.00000000E+00  0.00000000E+00  0.00000000E+00  0.00000000E+00  0.00000000E+00
  0.00000000E+00  0.00000000E+00  0.00000000E+00  0.00000000E+00  0.00000000E+00
  0.00000000E+00  0.00000000E+00  0.00000000E+00  0.00000000E+00  0.00000000E+00
  0.00000000E+00  0.00000000E+00  0.00000000E+00  0.00000000E+00  0.00000000E+00
  0.00000000E+00  0.00000000E+00  0.00000000E+00  0.00000000E+00  0.00000000E+00
  0.00000000E+00  0.00000000E+00  0.00000000E+00  0.00000000E+00  0.00000000E+00
  0.00000000E+00  0.00000000E+00  0.00000000E+00  0.00000000E+00  0.00000000E+00
  0.00000000E+00  0.00000000E+00  0.00000000E+00  0.00000000E+00  0.00000000E+00
  0.00000000E+00  0.00000000E+00  0.00000000E+00  0.00000000E+00  0.00000000E+00
  0.00000000E+00  0.00000000E+00  0.00000000E+00  0.00000000E+00  0.00000000E+00
  0.00000000E+00  0.00000000E+00  0.00000000E+00  0.00000000E+00  0.00000000E+00
  0.00000000E+00  0.00000000E+00  0.00000000E+00  0.00000000E+00  0.00000000E+00
  0.00000000E+00  0.00000000E+00  0.00000000E+00  0.00000000E+00  0.00000000E+00
  0.00000000E+00  0.00000000E+00  0.00000000E+00  0.00000000E+00  0.00000000E+00
  0.00000000E+00  0.00000000E+00  0.00000000E+00  0.00000000E+00
MO    4                     OCC NO =   1.00000000 ORB. ENERGY =  -0.23981004
 -3.01690469E-01 -2.21931076E-01 -1.94660128E-01 -1.96344560E-01 -2.19913309E-01
 -2.62146197E-01 -3.24413253E-01 -3.94564908E-01 -3.95368468E-01 -3.08878114E-01
 -1.35364813E-01 -5.30546105E-02 -1.88093559E-01 -3.94045692E-01 -3.83206411E-01
  2.69865283E-02  5.26074829E-01  4.73677311E-01 -7.10660555E-02 -3.36109176E-01
 -1.41926622E-01  8.86542650E-02  5.73461975E-02  1.09614254E-02  0.00000000E+00
  0.00000000E+00  0.00000000E+00  0.00000000E+00  0.00000000E+00  0.00000000E+00
  0.00000000E+00  0.00000000E+00  0.00000000E+00  0.00000000E+00  0.00000000E+00
  0.00000000E+00  0.00000000E+00  0.00000000E+00  0.00000000E+00  0.00000000E+00
  0.00000000E+00  0.00000000E+00  0.00000000E+00  0.00000000E+00  0.00000000E+00
  0.00000000E+00  0.00000000E+00  0.00000000E+00  0.00000000E+00  0.00000000E+00
  0.00000000E+00  0.00000000E+00  0.00000000E+00  0.00000000E+00  0.00000000E+00
  0.00000000E+00  0.00000000E+00  0.00000000E+00  0.00000000E+00  0.00000000E+00
  0.00000000E+00  0.00000000E+00  0.00000000E+00  0.00000000E+00  0.00000000E+00
  0.00000000E+00  0.00000000E+00  0.00000000E+00  0.00000000E+00  0.00000000E+00
  0.00000000E+00  0.00000000E+00  0.00000000E+00  0.00000000E+00  0.00000000E+00
  0.00000000E+00  0.00000000E+00  0.00000000E+00  0.00000000E+00  0.00000000E+00
  0.00000000E+00  0.00000000E+00  0.00000000E+00  0.00000000E+00  0.00000000E+00
  0.00000000E+00  0.00000000E+00  0.00000000E+00  0.00000000E+00  0.00000000E+00
  0.00000000E+00  0.00000000E+00  0.00000000E+00  0.00000000E+00  0.00000000E+00
  0.00000000E+00  0.00000000E+00  0.00000000E+00  0.00000000E+00  0.00000000E+00
  0.00000000E+00  0.00000000E+00  0.00000000E+00  0.00000000E+00  0.00000000E+00
  0.00000000E+00  0.00000000E+00  0.00000000E+00  0.00000000E+00  0.00000000E+00
  0.00000000E+00  0.00000000E+00  0.00000000E+00  0.00000000E+00  0.00000000E+00
  0.00000000E+00  0.00000000E+00  0.00000000E+00  0.00000000E+00  0.00000000E+00
  0.00000000E+00  0.00000000E+00  0.00000000E+00  0.00000000E+00  0.00000000E+00
  0.00000000E+00  0.00000000E+00  0.00000000E+00  0.00000000E+00  0.00000000E+00
  0.00000000E+00  0.00000000E+00  0.00000000E+00  0.00000000E+00  0.00000000E+00
  0.00000000E+00  0.00000000E+00  0.00000000E+00  0.00000000E+00  0.00000000E+00
  0.00000000E+00  0.00000000E+00  0.00000000E+00  0.00000000E+00  0.00000000E+00
  0.00000000E+00  0.00000000E+00  0.00000000E+00  0.00000000E+00  0.00000000E+00
  0.00000000E+00  0.00000000E+00  0.00000000E+00  0.00000000E+00  0.00000000E+00
  0.00000000E+00  0.00000000E+00  0.00000000E+00  0.00000000E+00  0.00000000E+00
  0.00000000E+00  0.00000000E+00  0.00000000E+00  0.00000000E+00  0.00000000E+00
  0.00000000E+00  0.00000000E+00  0.00000000E+00  0.00000000E+00  0.00000000E+00
  0.00000000E+00  0.00000000E+00  0.00000000E+00  0.00000000E+00  0.00000000E+00
  0.00000000E+00  0.00000000E+00  0.00000000E+00  0.00000000E+00  0.00000000E+00
  0.00000000E+00  0.00000000E+00  0.00000000E+00  0.00000000E+00  0.00000000E+00
  0.00000000E+00  0.00000000E+00  0.00000000E+00  0.00000000E+00  0.00000000E+00
  0.00000000E+00  0.00000000E+00  0.00000000E+00  0.00000000E+00  0.00000000E+00
  0.00000000E+00  0.00000000E+00  0.00000000E+00  0.00000000E+00
MO    5                     OCC NO =   1.00000000 ORB. ENERGY = -31.58161229
  0.00000000E+00  0.00000000E+00  0.00000000E+00  0.00000000E+00  0.00000000E+00
  0.00000000E+00  0.00000000E+00  0.00000000E+00  0.00000000E+00  0.00000000E+00
  0.00000000E+00  0.00000000E+00  0.00000000E+00  0.00000000E+00  0.00000000E+00
  0.00000000E+00  0.00000000E+00  0.00000000E+00  0.00000000E+00  0.00000000E+00
  0.00000000E+00  0.00000000E+00  0.00000000E+00  0.00000000E+00  4.45412924E+01
  0.00000000E+00  0.00000000E+00  3.39979794E+01  0.00000000E+00  0.00000000E+00
  3.92022503E+01  0.00000000E+00  0.00000000E+00  5.02808708E+01  0.00000000E+00
  0.00000000E+00  5.71661114E+01  0.00000000E+00  0.00000000E+00  6.05602119E+01
  0.00000000E+00  0.00000000E+00  5.25435469E+01  0.00000000E+00  0.00000000E+00
  3.11847594E+01  0.00000000E+00  0.00000000E+00  1.05077987E+01  0.00000000E+00
  0.00000000E+00  1.18681726E+00  0.00000000E+00  0.00000000E+00 -7.97600710E-02
  0.00000000E+00  0.00000000E+00 -1.49073912E-02  0.00000000E+00  0.00000000E+00
 -1.83530598E-02  0.00000000E+00  0.00000000E+00  2.49531004E-02  0.00000000E+00
  0.00000000E+00  1.98554160E-02  0.00000000E+00  0.00000000E+00  5.92307534E-03
  0.00000000E+00  0.00000000E+00 -2.31468867E-03  0.00000000E+00  0.00000000E+00
  5.43242860E-04  0.00000000E+00  0.00000000E+00 -9.68773823E-05  0.00000000E+00
  0.00000000E+00  1.04165142E-05  0.00000000E+00  0.00000000E+00  0.00000000E+00
  0.00000000E+00  0.00000000E+00  0.00000000E+00  0.00000000E+00  0.00000000E+00
  0.00000000E+00  0.00000000E+00  0.00000000E+00  0.00000000E+00  0.00000000E+00
  0.00000000E+00  0.00000000E+00  0.00000000E+00  0.00000000E+00  0.00000000E+00
  0.00000000E+00  0.00000000E+00  0.00000000E+00  0.00000000E+00  0.00000000E+00
  0.00000000E+00  0.00000000E+00  0.00000000E+00  0.00000000E+00  0.00000000E+00
  0.00000000E+00  0.00000000E+00  0.00000000E+00  0.00000000E+00  0.00000000E+00
  0.00000000E+00  0.00000000E+00  0.00000000E+00  0.00000000E+00  0.00000000E+00
  0.00000000E+00  0.00000000E+00  0.00000000E+00  0.00000000E+00  0.00000000E+00
  0.00000000E+00  0.00000000E+00  0.00000000E+00  0.00000000E+00  0.00000000E+00
  0.00000000E+00  0.00000000E+00  0.00000000E+00  0.00000000E+00  0.00000000E+00
  0.00000000E+00  0.00000000E+00  0.00000000E+00  0.00000000E+00  0.00000000E+00
  0.00000000E+00  0.00000000E+00  0.00000000E+00  0.00000000E+00  0.00000000E+00
  0.00000000E+00  0.00000000E+00  0.00000000E+00  0.00000000E+00  0.00000000E+00
  0.00000000E+00  0.00000000E+00  0.00000000E+00  0.00000000E+00  0.00000000E+00
  0.00000000E+00  0.00000000E+00  0.00000000E+00  0.00000000E+00  0.00000000E+00
  0.00000000E+00  0.00000000E+00  0.00000000E+00  0.00000000E+00  0.00000000E+00
  0.00000000E+00  0.00000000E+00  0.00000000E+00  0.00000000E+00  0.00000000E+00
  0.00000000E+00  0.00000000E+00  0.00000000E+00  0.00000000E+00  0.00000000E+00
  0.00000000E+00  0.00000000E+00  0.00000000E+00  0.00000000E+00  0.00000000E+00
  0.00000000E+00  0.00000000E+00  0.00000000E+00  0.00000000E+00  0.00000000E+00
  0.00000000E+00  0.00000000E+00  0.00000000E+00  0.00000000E+00  0.00000000E+00
  0.00000000E+00  0.00000000E+00  0.00000000E+00  0.00000000E+00  0.00000000E+00
  0.00000000E+00  0.00000000E+00  0.00000000E+00  0.00000000E+00
MO    6                     OCC NO =   1.00000000 ORB. ENERGY = -31.58161229
  0.00000000E+00  0.00000000E+00  0.00000000E+00  0.00000000E+00  0.00000000E+00
  0.00000000E+00  0.00000000E+00  0.00000000E+00  0.00000000E+00  0.00000000E+00
  0.00000000E+00  0.00000000E+00  0.00000000E+00  0.00000000E+00  0.00000000E+00
  0.00000000E+00  0.00000000E+00  0.00000000E+00  0.00000000E+00  0.00000000E+00
  0.00000000E+00  0.00000000E+00  0.00000000E+00  0.00000000E+00  0.00000000E+00
  4.45412924E+01  0.00000000E+00  0.00000000E+00  3.39979794E+01  0.00000000E+00
  0.00000000E+00  3.92022503E+01  0.00000000E+00  0.00000000E+00  5.02808708E+01
  0.00000000E+00  0.00000000E+00  5.71661114E+01  0.00000000E+00  0.00000000E+00
  6.05602119E+01  0.00000000E+00  0.00000000E+00  5.25435469E+01  0.00000000E+00
  0.00000000E+00  3.11847594E+01  0.00000000E+00  0.00000000E+00  1.05077987E+01
  0.00000000E+00  0.00000000E+00  1.18681726E+00  0.00000000E+00  0.00000000E+00
 -7.97600710E-02  0.00000000E+00  0.00000000E+00 -1.49073912E-02  0.00000000E+00
  0.00000000E+00 -1.83530598E-02  0.00000000E+00  0.00000000E+00  2.49531004E-02
  0.00000000E+00  0.00000000E+00  1.98554160E-02  0.00000000E+00  0.00000000E+00
  5.92307534E-03  0.00000000E+00  0.00000000E+00 -2.31468867E-03  0.00000000E+00
  0.00000000E+00  5.43242860E-04  0.00000000E+00  0.00000000E+00 -9.68773823E-05
  0.00000000E+00  0.00000000E+00  1.04165142E-05  0.00000000E+00  0.00000000E+00
  0.00000000E+00  0.00000000E+00  0.00000000E+00  0.00000000E+00  0.00000000E+00
  0.00000000E+00  0.00000000E+00  0.00000000E+00  0.00000000E+00  0.00000000E+00
  0.00000000E+00  0.00000000E+00  0.00000000E+00  0.00000000E+00  0.00000000E+00
  0.00000000E+00  0.00000000E+00  0.00000000E+00  0.00000000E+00  0.00000000E+00
  0.00000000E+00  0.00000000E+00  0.00000000E+00  0.00000000E+00  0.00000000E+00
  0.00000000E+00  0.00000000E+00  0.00000000E+00  0.00000000E+00  0.00000000E+00
  0.00000000E+00  0.00000000E+00  0.00000000E+00  0.00000000E+00  0.00000000E+00
  0.00000000E+00  0.00000000E+00  0.00000000E+00  0.00000000E+00  0.00000000E+00
  0.00000000E+00  0.00000000E+00  0.00000000E+00  0.00000000E+00  0.00000000E+00
  0.00000000E+00  0.00000000E+00  0.00000000E+00  0.00000000E+00  0.00000000E+00
  0.00000000E+00  0.00000000E+00  0.00000000E+00  0.00000000E+00  0.00000000E+00
  0.00000000E+00  0.00000000E+00  0.00000000E+00  0.00000000E+00  0.00000000E+00
  0.00000000E+00  0.00000000E+00  0.00000000E+00  0.00000000E+00  0.00000000E+00
  0.00000000E+00  0.00000000E+00  0.00000000E+00  0.00000000E+00  0.00000000E+00
  0.00000000E+00  0.00000000E+00  0.00000000E+00  0.00000000E+00  0.00000000E+00
  0.00000000E+00  0.00000000E+00  0.00000000E+00  0.00000000E+00  0.00000000E+00
  0.00000000E+00  0.00000000E+00  0.00000000E+00  0.00000000E+00  0.00000000E+00
  0.00000000E+00  0.00000000E+00  0.00000000E+00  0.00000000E+00  0.00000000E+00
  0.00000000E+00  0.00000000E+00  0.00000000E+00  0.00000000E+00  0.00000000E+00
  0.00000000E+00  0.00000000E+00  0.00000000E+00  0.00000000E+00  0.00000000E+00
  0.00000000E+00  0.00000000E+00  0.00000000E+00  0.00000000E+00  0.00000000E+00
  0.00000000E+00  0.00000000E+00  0.00000000E+00  0.00000000E+00  0.00000000E+00
  0.00000000E+00  0.00000000E+00  0.00000000E+00  0.00000000E+00
MO    7                     OCC NO =   1.00000000 ORB. ENERGY = -31.58161229
  0.00000000E+00  0.00000000E+00  0.00000000E+00  0.00000000E+00  0.00000000E+00
  0.00000000E+00  0.00000000E+00  0.00000000E+00  0.00000000E+00  0.00000000E+00
  0.00000000E+00  0.00000000E+00  0.00000000E+00  0.00000000E+00  0.00000000E+00
  0.00000000E+00  0.00000000E+00  0.00000000E+00  0.00000000E+00  0.00000000E+00
  0.00000000E+00  0.00000000E+00  0.00000000E+00  0.00000000E+00  0.00000000E+00
  0.00000000E+00  4.45412924E+01  0.00000000E+00  0.00000000E+00  3.39979794E+01
  0.00000000E+00  0.00000000E+00  3.92022503E+01  0.00000000E+00  0.00000000E+00
  5.02808708E+01  0.00000000E+00  0.00000000E+00  5.71661114E+01  0.00000000E+00
  0.00000000E+00  6.05602119E+01  0.00000000E+00  0.00000000E+00  5.25435469E+01
  0.00000000E+00  0.00000000E+00  3.11847594E+01  0.00000000E+00  0.00000000E+00
  1.05077987E+01  0.00000000E+00  0.00000000E+00  1.18681726E+00  0.00000000E+00
  0.00000000E+00 -7.97600710E-02  0.00000000E+00  0.00000000E+00 -1.49073912E-02
  0.00000000E+00  0.00000000E+00 -1.83530598E-02  0.00000000E+00  0.00000000E+00
  2.49531004E-02  0.00000000E+00  0.00000000E+00  1.98554160E-02  0.00000000E+00
  0.00000000E+00  5.92307534E-03  0.00000000E+00  0.00000000E+00 -2.31468867E-03
  0.00000000E+00  0.00000000E+00  5.43242860E-04  0.00000000E+00  0.00000000E+00
 -9.68773823E-05  0.00000000E+00  0.00000000E+00  1.04165142E-05  0.00000000E+00
  0.00000000E+00  0.00000000E+00  0.00000000E+00  0.00000000E+00  0.00000000E+00
  0.00000000E+00  0.00000000E+00  0.00000000E+00  0.00000000E+00  0.00000000E+00
  0.00000000E+00  0.00000000E+00  0.00000000E+00  0.00000000E+00  0.00000000E+00
  0.00000000E+00  0.00000000E+00  0.00000000E+00  0.00000000E+00  0.00000000E+00
  0.00000000E+00  0.00000000E+00  0.00000000E+00  0.00000000E+00  0.00000000E+00
  0.00000000E+00  0.00000000E+00  0.00000000E+00  0.00000000E+00  0.00000000E+00
  0.00000000E+00  0.00000000E+00  0.00000000E+00  0.00000000E+00  0.00000000E+00
  0.00000000E+00  0.00000000E+00  0.00000000E+00  0.00000000E+00  0.00000000E+00
  0.00000000E+00  0.00000000E+00  0.00000000E+00  0.00000000E+00  0.00000000E+00
  0.00000000E+00  0.00000000E+00  0.00000000E+00  0.00000000E+00  0.00000000E+00
  0.00000000E+00  0.00000000E+00  0.00000000E+00  0.00000000E+00  0.00000000E+00
  0.00000000E+00  0.00000000E+00  0.00000000E+00  0.00000000E+00  0.00000000E+00
  0.00000000E+00  0.00000000E+00  0.00000000E+00  0.00000000E+00  0.00000000E+00
  0.00000000E+00  0.00000000E+00  0.00000000E+00  0.00000000E+00  0.00000000E+00
  0.00000000E+00  0.00000000E+00  0.00000000E+00  0.00000000E+00  0.00000000E+00
  0.00000000E+00  0.00000000E+00  0.00000000E+00  0.00000000E+00  0.00000000E+00
  0.00000000E+00  0.00000000E+00  0.00000000E+00  0.00000000E+00  0.00000000E+00
  0.00000000E+00  0.00000000E+00  0.00000000E+00  0.00000000E+00  0.00000000E+00
  0.00000000E+00  0.00000000E+00  0.00000000E+00  0.00000000E+00  0.00000000E+00
  0.00000000E+00  0.00000000E+00  0.00000000E+00  0.00000000E+00  0.00000000E+00
  0.00000000E+00  0.00000000E+00  0.00000000E+00  0.00000000E+00  0.00000000E+00
  0.00000000E+00  0.00000000E+00  0.00000000E+00  0.00000000E+00  0.00000000E+00
  0.00000000E+00  0.00000000E+00  0.00000000E+00  0.00000000E+00
MO    8                     OCC NO =   1.00000000 ORB. ENERGY =  -2.87137896
  0.00000000E+00  0.00000000E+00  0.00000000E+00  0.00000000E+00  0.00000000E+00
  0.00000000E+00  0.00000000E+00  0.00000000E+00  0.00000000E+00  0.00000000E+00
  0.00000000E+00  0.00000000E+00  0.00000000E+00  0.00000000E+00  0.00000000E+00
  0.00000000E+00  0.00000000E+00  0.00000000E+00  0.00000000E+00  0.00000000E+00
  0.00000000E+00  0.00000000E+00  0.00000000E+00  0.00000000E+00 -1.71307420E+01
  0.00000000E+00  0.00000000E+00 -1.30757457E+01  0.00000000E+00  0.00000000E+00
 -1.50773271E+01  0.00000000E+00  0.00000000E+00 -1.93382046E+01  0.00000000E+00
  0.00000000E+00 -2.19862930E+01  0.00000000E+00  0.00000000E+00 -2.32916763E+01
  0.00000000E+00  0.00000000E+00 -2.02084380E+01  0.00000000E+00  0.00000000E+00
 -1.19937711E+01  0.00000000E+00  0.00000000E+00 -4.04133736E+00  0.00000000E+00
  0.00000000E+00 -4.56454206E-01  0.00000000E+00  0.00000000E+00  2.61973999E-01
  0.00000000E+00  0.00000000E+00 -1.64758144E+00  0.00000000E+00  0.00000000E+00
 -2.02840057E+00  0.00000000E+00  0.00000000E+00  2.75784439E+00  0.00000000E+00
  0.00000000E+00  2.19444264E+00  0.00000000E+00  0.00000000E+00  6.54624869E-01
  0.00000000E+00  0.00000000E+00  4.53196760E-02  0.00000000E+00  0.00000000E+00
  1.04059890E-03  0.00000000E+00  0.00000000E+00 -1.50620069E-04  0.00000000E+00
  0.00000000E+00  1.85844546E-05  0.00000000E+00  0.00000000E+00  0.00000000E+00
  0.00000000E+00  0.00000000E+00  0.00000000E+00  0.00000000E+00  0.00000000E+00
  0.00000000E+00  0.00000000E+00  0.00000000E+00  0.00000000E+00  0.00000000E+00
  0.00000000E+00  0.00000000E+00  0.00000000E+00  0.00000000E+00  0.00000000E+00
  0.00000000E+00  0.00000000E+00  0.00000000E+00  0.00000000E+00  0.00000000E+00
  0.00000000E+00  0.00000000E+00  0.00000000E+00  0.00000000E+00  0.00000000E+00