atomref-proatoms O_q0_mult3_nist x2c-QZVPall
GAUSSIAN             10 MOL ORBITALS     92 PRIMITIVES        1 NUCLEI
  O    1    (CENTRE  1)   0.00000000  0.00000000  0.00000000  CHARGE = 8.0
CENTRE ASSIGNMENTS    1  1  1  1  1  1  1  1  1  1  1  1  1  1  1  1  1  1  1  1
CENTRE ASSIGNMENTS    1  1  1  1  1  1  1  1  1  1  1  1  1  1  1  1  1  1  1  1
CENTRE ASSIGNMENTS    1  1  1  1  1  1  1  1  1  1  1  1  1  1  1  1  1  1  1  1
CENTRE ASSIGNMENTS    1  1  1  1  1  1  1  1  1  1  1  1  1  1  1  1  1  1  1  1
CENTRE ASSIGNMENTS    1  1  1  1  1  1  1  1  1  1  1  1
TYPE ASSIGNMENTS      1  1  1  1  1  1  1  1  1  1  1  1  1  1  1  2  3  4  2  3
TYPE ASSIGNMENTS      4  2  3  4  2  3  4  2  3  4  2  3  4  2  3  4  2  3  4  5
TYPE ASSIGNMENTS      8  9  6 10  7  5  8  9  6 10  7  5  8  9  6 10  7 11 14 15
TYPE ASSIGNMENTS     17 20 18 12 16 19 13 11 14 15 17 20 18 12 16 19 13 21 24 25
TYPE ASSIGNMENTS     30 33 31 26 34 35 28 22 27 32 29 23
EXPONENTS  1.1670072E+05 1.7502297E+04 3.9928390E+03 1.1324731E+03 3.7009692E+02
EXPONENTS  1.3362939E+02 5.2039359E+01 2.1457122E+01 8.9837346E+01 2.6427940E+01
EXPONENTS  9.2826503E+00 4.0981541E+00 1.3258997E+00 5.1866891E-01 1.9774119E-01
EXPONENTS  1.9129272E+02 1.9129272E+02 1.9129272E+02 4.5228498E+01 4.5228498E+01
EXPONENTS  4.5228498E+01 1.4353675E+01 1.4353675E+01 1.4353675E+01 5.2421818E+00
EXPONENTS  5.2421818E+00 5.2421818E+00 2.0792561E+00 2.0792561E+00 2.0792561E+00
EXPONENTS  8.4281743E-01 8.4281743E-01 8.4281743E-01 3.3617985E-01 3.3617985E-01
EXPONENTS  3.3617985E-01 1.2863998E-01 1.2863998E-01 1.2863998E-01 3.7750000E+00
EXPONENTS  3.7750000E+00 3.7750000E+00 3.7750000E+00 3.7750000E+00 3.7750000E+00
EXPONENTS  1.3000000E+00 1.3000000E+00 1.3000000E+00 1.3000000E+00 1.3000000E+00
EXPONENTS  1.3000000E+00 4.4400000E-01 4.4400000E-01 4.4400000E-01 4.4400000E-01
EXPONENTS  4.4400000E-01 4.4400000E-01 2.6660000E+00 2.6660000E+00 2.6660000E+00
EXPONENTS  2.6660000E+00 2.6660000E+00 2.6660000E+00 2.6660000E+00 2.6660000E+00
EXPONENTS  2.6660000E+00 2.6660000E+00 8.5900000E-01 8.5900000E-01 8.5900000E-01
EXPONENTS  8.5900000E-01 8.5900000E-01 8.5900000E-01 8.5900000E-01 8.5900000E-01
EXPONENTS  8.5900000E-01 8.5900000E-01 1.8460000E+00 1.8460000E+00 1.8460000E+00
EXPONENTS  1.8460000E+00 1.8460000E+00 1.8460000E+00 1.8460000E+00 1.8460000E+00
EXPONENTS  1.8460000E+00 1.8460000E+00 1.8460000E+00 1.8460000E+00 1.8460000E+00
EXPONENTS  1.8460000E+00 1.8460000E+00
MO    1                     OCC NO =   1.00000000 ORB. ENERGY = -19.38746917
  4.13755771E-01  4.66377667E-01  6.62480629E-01  9.95260991E-01  1.48127191E+00
  2.05904486E+00  2.49674835E+00  2.36592074E+00 -1.08696354E-02 -4.21547470E-02
  1.35943897E+00  3.53314992E-01  1.07936619E-02 -8.74617920E-04  1.29035688E-04
  0.00000000E+00  0.00000000E+00  0.00000000E+00  0.00000000E+00  0.00000000E+00
  0.00000000E+00  0.00000000E+00  0.00000000E+00  0.00000000E+00  0.00000000E+00
  0.00000000E+00  0.00000000E+00  0.00000000E+00  0.00000000E+00  0.00000000E+00
  0.00000000E+00  0.00000000E+00  0.00000000E+00  0.00000000E+00  0.00000000E+00
  0.00000000E+00  0.00000000E+00  0.00000000E+00  0.00000000E+00  0.00000000E+00
  0.00000000E+00  0.00000000E+00  0.00000000E+00  0.00000000E+00  0.00000000E+00
  0.00000000E+00  0.00000000E+00  0.00000000E+00  0.00000000E+00  0.00000000E+00
  0.00000000E+00  0.00000000E+00  0.00000000E+00  0.00000000E+00  0.00000000E+00
  0.00000000E+00  0.00000000E+00  0.00000000E+00  0.00000000E+00  0.00000000E+00
  0.00000000E+00  0.00000000E+00  0.00000000E+00  0.00000000E+00  0.00000000E+00
  0.00000000E+00  0.00000000E+00  0.00000000E+00  0.00000000E+00  0.00000000E+00
  0.00000000E+00  0.00000000E+00  0.00000000E+00  0.00000000E+00  0.00000000E+00
  0.00000000E+00  0.00000000E+00  0.00000000E+00  0.00000000E+00  0.00000000E+00
  0.00000000E+00  0.00000000E+00  0.00000000E+00  0.00000000E+00  0.00000000E+00
  0.00000000E+00  0.00000000E+00  0.00000000E+00  0.00000000E+00  0.00000000E+00
  0.00000000E+00  0.00000000E+00
MO    2                     OCC NO =   1.00000000 ORB. ENERGY =  -1.06468415
 -9.92439170E-02 -1.11865863E-01 -1.58903336E-01 -2.38724402E-01 -3.55299520E-01
 -4.93884778E-01 -5.98872820E-01 -5.67492365E-01 -3.90073187E-02 -1.51278639E-01
 -6.10915675E-01 -1.69735610E-01  3.08697597E-01  2.49870079E-01  4.81475923E-02
  0.00000000E+00  0.00000000E+00  0.00000000E+00  0.00000000E+00  0.00000000E+00
  0.00000000E+00  0.00000000E+00  0.00000000E+00  0.00000000E+00  0.00000000E+00
  0.00000000E+00  0.00000000E+00  0.00000000E+00  0.00000000E+00  0.00000000E+00
  0.00000000E+00  0.00000000E+00  0.00000000E+00  0.00000000E+00  0.00000000E+00
  0.00000000E+00  0.00000000E+00  0.00000000E+00  0.00000000E+00  0.00000000E+00
  0.00000000E+00  0.00000000E+00  0.00000000E+00  0.00000000E+00  0.00000000E+00
  0.00000000E+00  0.00000000E+00  0.00000000E+00  0.00000000E+00  0.00000000E+00
  0.00000000E+00  0.00000000E+00  0.00000000E+00  0.00000000E+00  0.00000000E+00
  0.00000000E+00  0.00000000E+00  0.00000000E+00  0.00000000E+00  0.00000000E+00
  0.00000000E+00  0.00000000E+00  0.00000000E+00  0.00000000E+00  0.00000000E+00
  0.00000000E+00  0.00000000E+00  0.00000000E+00  0.00000000E+00  0.00000000E+00
  0.00000000E+00  0.00000000E+00  0.00000000E+00  0.00000000E+00  0.00000000E+00
  0.00000000E+00  0.00000000E+00  0.00000000E+00  0.00000000E+00  0.00000000E+00
  0.00000000E+00  0.00000000E+00  0.00000000E+00  0.00000000E+00  0.00000000E+00
  0.00000000E+00  0.00000000E+00  0.00000000E+00  0.00000000E+00  0.00000000E+00
  0.00000000E+00  0.00000000E+00
MO    3                     OCC NO =   1.00000000 ORB. ENERGY =  -0.46526830
  0.00000000E+00  0.00000000E+00  0.00000000E+00  0.00000000E+00  0.00000000E+00
  0.00000000E+00  0.00000000E+00  0.00000000E+00  0.00000000E+00  0.00000000E+00
  0.00000000E+00  0.00000000E+00  0.00000000E+00  0.00000000E+00  0.00000000E+00
  1.03737667E+00  0.00000000E+00  0.00000000E+00  1.33375087E+00  0.00000000E+00
  0.00000000E+00  1.47745512E+00  0.00000000E+00  0.00000000E+00  1.36960429E+00
  0.00000000E+00  0.00000000E+00  9.54081515E-01  0.00000000E+00  0.00000000E+00
  4.30393498E-01  0.00000000E+00  0.00000000E+00  1.18577874E-01  0.00000000E+00
  0.00000000E+00  1.45849035E-02  0.00000000E+00  0.00000000E+00  0.00000000E+00
  0.00000000E+00  0.00000000E+00  0.00000000E+00  0.00000000E+00  0.00000000E+00
  0.00000000E+00  0.00000000E+00  0.00000000E+00  0.00000000E+00  0.00000000E+00
  0.00000000E+00  0.00000000E+00  0.00000000E+00  0.00000000E+00  0.00000000E+00
  0.00000000E+00  0.00000000E+00  0.00000000E+00  0.00000000E+00  0.00000000E+00
  0.00000000E+00  0.00000000E+00  0.00000000E+00  0.00000000E+00  0.00000000E+00
  0.00000000E+00  0.00000000E+00  0.00000000E+00  0.00000000E+00  0.00000000E+00
  0.00000000E+00  0.00000000E+00  0.00000000E+00  0.00000000E+00  0.00000000E+00
  0.00000000E+00  0.00000000E+00  0.00000000E+00  0.00000000E+00  0.00000000E+00
  0.00000000E+00  0.00000000E+00  0.00000000E+00  0.00000000E+00  0.00000000E+00
  0.00000000E+00  0.00000000E+00  0.00000000E+00  0.00000000E+00  0.00000000E+00
  0.00000000E+00  0.00000000E+00
MO    4                     OCC NO =   1.00000000 ORB. ENERGY =  -0.46526830
  0.00000000E+00  0.00000000E+00  0.00000000E+00  0.00000000E+00  0.00000000E+00
  0.00000000E+00  0.00000000E+00  0.00000000E+00  0.00000000E+00  0.00000000E+00
  0.00000000E+00  0.00000000E+00  0.00000000E+00  0.00000000E+00  0.00000000E+00
  0.00000000E+00  1.03737667E+00  0.00000000E+00  0.00000000E+00  1.33375087E+00
  0.00000000E+00  0.00000000E+00  1.47745512E+00  0.00000000E+00  0.00000000E+00
  1.36960429E+00  0.00000000E+00  0.00000000E+00  9.54081515E-01  0.00000000E+00
  0.00000000E+00  4.30393498E-01  0.00000000E+00  0.00000000E+00  1.18577874E-01
  0.00000000E+00  0.00000000E+00  1.45849035E-02  0.00000000E+00  0.00000000E+00
  0.00000000E+00  0.00000000E+00  0.00000000E+00  0.00000000E+00  0.00000000E+00
  0.00000000E+00  0.00000000E+00  0.00000000E+00  0.00000000E+00  0.00000000E+00
  0.00000000E+00  0.00000000E+00  0.00000000E+00  0.00000000E+00  0.00000000E+00
  0.00000000E+00  0.00000000E+00  0.00000000E+00  0.00000000E+00  0.00000000E+00
  0.00000000E+00  0.00000000E+00  0.00000000E+00  0.00000000E+00  0.00000000E+00
  0.00000000E+00  0.00000000E+00  0.00000000E+00  0.00000000E+00  0.00000000E+00
  0.00000000E+00  0.00000000E+00  0.00000000E+00  0.00000000E+00  0.00000000E+00
  0.00000000E+00  0.00000000E+00  0.00000000E+00  0.00000000E+00  0.00000000E+00
  0.00000000E+00  0.00000000E+00  0.00000000E+00  0.00000000E+00  0.00000000E+00
  0.00000000E+00  0.00000000E+00  0.00000000E+00  0.00000000E+00  0.00000000E+00
  0.00000000E+00  0.00000000E+00
MO    5                     OCC NO =   1.00000000 ORB. ENERGY =  -0.46526830
  0.00000000E+00  0.00000000E+00  0.00000000E+00  0.00000000E+00  0.00000000E+00
  0.00000000E+00  0.00000000E+00  0.00000000E+00  0.00000000E+00  0.00000000E+00
  0.00000000E+00  0.00000000E+00  0.00000000E+00  0.00000000E+00  0.00000000E+00
  0.00000000E+00  0.00000000E+00  1.03737667E+00  0.00000000E+00  0.00000000E+00
  1.33375087E+00  0.00000000E+00  0.00000000E+00  1.47745512E+00  0.00000000E+00
  0.00000000E+00  1.36960429E+00  0.00000000E+00  0.00000000E+00  9.54081515E-01
  0.00000000E+00  0.00000000E+00  4.30393498E-01  0.00000000E+00  0.00000000E+00
  1.18577874E-01  0.00000000E+00  0.00000000E+00  1.45849035E-02  0.00000000E+00
  0.00000000E+00  0.00000000E+00  0.00000000E+00  0.00000000E+00  0.00000000E+00
  0.00000000E+00  0.00000000E+00  0.00000000E+00  0.00000000E+00  0.00000000E+00
  0.00000000E+00  0.00000000E+00  0.00000000E+00  0.00000000E+00  0.00000000E+00
  0.00000000E+00  0.00000000E+00  0.00000000E+00  0.00000000E+00  0.00000000E+00
  0.00000000E+00  0.00000000E+00  0.00000000E+00  0.00000000E+00  0.00000000E+00
  0.00000000E+00  0.00000000E+00  0.00000000E+00  0.00000000E+00  0.00000000E+00
  0.00000000E+00  0.00000000E+00  0.00000000E+00  0.00000000E+00  0.00000000E+00
  0.00000000E+00  0.00000000E+00  0.00000000E+00  0.00000000E+00  0.00000000E+00
  0.00000000E+00  0.00000000E+00  0.00000000E+00  0.00000000E+00  0.00000000E+00
  0.00000000E+00  0.00000000E+00  0.00000000E+00  0.00000000E+00  0.00000000E+00
  0.00000000E+00  0.00000000E+00
MO    7                     OCC NO =   1.00000000 ORB. ENERGY = -19.33224776
  4.14576147E-01  4.67302379E-01  6.63794164E-01  9.97234348E-01  1.48420891E+00
  2.06312744E+00  2.50169878E+00  2.37061177E+00 -1.05117758E-02 -4.07668914E-02
  1.36532424E+00  3.47694658E-01  9.93388535E-03 -9.34673670E-04  1.19223976E-04
  0.00000000E+00  0.00000000E+00  0.00000000E+00  0.00000000E+00  0.00000000E+00
  0.00000000E+00  0.00000000E+00  0.00000000E+00  0.00000000E+00  0.00000000E+00
  0.00000000E+00  0.00000000E+00  0.00000000E+00  0.00000000E+00  0.00000000E+00
  0.00000000E+00  0.00000000E+00  0.00000000E+00  0.00000000E+00  0.00000000E+00
  0.00000000E+00  0.00000000E+00  0.00000000E+00  0.00000000E+00  0.00000000E+00
  0.00000000E+00  0.00000000E+00  0.00000000E+00  0.00000000E+00  0.00000000E+00
  0.00000000E+00  0.00000000E+00  0.00000000E+00  0.00000000E+00  0.00000000E+00
  0.00000000E+00  0.00000000E+00  0.00000000E+00  0.00000000E+00  0.00000000E+00
  0.00000000E+00  0.00000000E+00  0.00000000E+00  0.00000000E+00  0.00000000E+00
  0.00000000E+00  0.00000000E+00  0.00000000E+00  0.00000000E+00  0.00000000E+00
  0.00000000E+00  0.00000000E+00  0.00000000E+00  0.00000000E+00  0.00000000E+00
  0.00000000E+00  0.00000000E+00  0.00000000E+00  0.00000000E+00  0.00000000E+00
  0.00000000E+00  0.00000000E+00  0.00000000E+00  0.00000000E+00  0.00000000E+00
  0.00000000E+00  0.00000000E+00  0.00000000E+00  0.00000000E+00  0.00000000E+00
  0.00000000E+00  0.00000000E+00  0.00000000E+00  0.00000000E+00  0.00000000E+00
  0.00000000E+00  0.00000000E+00
MO    8                     OCC NO =   1.00000000 ORB. ENERGY =  -0.89209498
 -9.54947050E-02 -1.07639822E-01 -1.52900326E-01 -2.29705931E-01 -3.41877103E-01
 -4.75226922E-01 -5.76248752E-01 -5.46053780E-01 -3.95055275E-02 -1.53210798E-01
 -5.82116723E-01 -1.64201948E-01  2.88401701E-01  2.36310870E-01  5.96979225E-02
  0.00000000E+00  0.00000000E+00  0.00000000E+00  0.00000000E+00  0.00000000E+00
  0.00000000E+00  0.00000000E+00  0.00000000E+00  0.00000000E+00  0.00000000E+00
  0.00000000E+00  0.00000000E+00  0.00000000E+00  0.00000000E+00  0.00000000E+00
  0.00000000E+00  0.00000000E+00  0.00000000E+00  0.00000000E+00  0.00000000E+00
  0.00000000E+00  0.00000000E+00  0.00000000E+00  0.00000000E+00  0.00000000E+00
  0.00000000E+00  0.00000000E+00  0.00000000E+00  0.00000000E+00  0.00000000E+00
  0.00000000E+00  0.00000000E+00  0.00000000E+00  0.00000000E+00  0.00000000E+00
  0.00000000E+00  0.00000000E+00  0.00000000E+00  0.00000000E+00  0.00000000E+00
  0.00000000E+00  0.00000000E+00  0.00000000E+00  0.00000000E+00  0.00000000E+00
  0.00000000E+00  0.00000000E+00  0.00000000E+00  0.00000000E+00  0.00000000E+00
  0.00000000E+00  0.00000000E+00  0.00000000E+00  0.00000000E+00  0.00000000E+00
  0.00000000E+00  0.00000000E+00  0.00000000E+00  0.00000000E+00  0.00000000E+00
  0.00000000E+00  0.00000000E+00  0.00000000E+00  0.00000000E+00  0.00000000E+00
  0.00000000E+00  0.00000000E+00  0.00000000E+00  0.00000000E+00  0.00000000E+00
  0.00000000E+00  0.00000000E+00  0.00000000E+00  0.00000000E+00  0.00000000E+00
  0.00000000E+00  0.00000000E+00
MO    9                     OCC NO =   0.33333333 ORB. ENERGY =  -0.23301470
  0.00000000E+00  0.00000000E+00  0.00000000E+00  0.00000000E+00  0.00000000E+00
  0.00000000E+00  0.00000000E+00  0.00000000E+00  0.00000000E+00  0.00000000E+00
  0.00000000E+00  0.00000000E+00  0.00000000E+00  0.00000000E+00  0.00000000E+00
  9.28169364E-01  0.00000000E+00  0.00000000E+00  1.19334349E+00  0.00000000E+00
  0.00000000E+00  1.32191962E+00  0.00000000E+00  0.00000000E+00  1.22542252E+00
  0.00000000E+00  0.00000000E+00  8.53642901E-01  0.00000000E+00  0.00000000E+00
  3.84252600E-01  0.00000000E+00  0.00000000E+00  1.17024025E-01  0.00000000E+00
  0.00000000E+00  2.73153491E-02  0.00000000E+00  0.00000000E+00  0.00000000E+00
  0.00000000E+00  0.00000000E+00  0.00000000E+00  0.00000000E+00  0.00000000E+00
  0.00000000E+00  0.00000000E+00  0.00000000E+00  0.00000000E+00  0.00000000E+00
  0.00000000E+00  0.00000000E+00  0.00000000E+00  0.00000000E+00  0.00000000E+00
  0.00000000E+00  0.00000000E+00  0.00000000E+00  0.00000000E+00  0.00000000E+00
  0.00000000E+00  0.00000000E+00  0.00000000E+00  0.00000000E+00  0.00000000E+00
  0.00000000E+00  0.00000000E+00  0.00000000E+00  0.00000000E+00  0.00000000E+00
  0.00000000E+00  0.00000000E+00  0.00000000E+00  0.00000000E+00  0.00000000E+00
  0.00000000E+00  0.00000000E+00  0.00000000E+00  0.00000000E+00  0.00000000E+00
  0.00000000E+00  0.00000000E+00  0.00000000E+00  0.00000000E+00  0.00000000E+00
  0.00000000E+00  0.00000000E+00  0.00000000E+00  0.00000000E+00  0.00000000E+00
  0.00000000E+00  0.00000000E+00
MO   10                     OCC NO =   0.33333333 ORB. ENERGY =  -0.23301470
  0.00000000E+00  0.00000000E+00  0.00000000E+00  0.00000000E+00  0.00000000E+00
  0.00000000E+00  0.00000000E+00  0.00000000E+00  0.00000000E+00  0.00000000E+00
  0.00000000E+00  0.00000000E+00  0.00000000E+00  0.00000000E+00  0.00000000E+00
  0.00000000E+00  9.28169364E-01  0.00000000E+00  0.00000000E+00  1.19334349E+00
  0.00000000E+00  0.00000000E+00  1.32191962E+00  0.00000000E+00  0.00000000E+00
  1.22542252E+00  0.00000000E+00  0.00000000E+00  8.53642901E-01  0.00000000E+00
  0.00000000E+00  3.84252600E-01  0.00000000E+00  0.00000000E+00  1.17024025E-01
  0.00000000E+00  0.00000000E+00  2.73153491E-02  0.00000000E+00  0.00000000E+00
  0.00000000E+00  0.00000000E+00  0.00000000E+00  0.00000000E+00  0.00000000E+00
  0.00000000E+00  0.00000000E+00  0.00000000E+00  0.00000000E+00  0.00000000E+00
  0.00000000E+00  0.00000000E+00  0.00000000E+00  0.00000000E+00  0.00000000E+00
  0.00000000E+00  0.00000000E+00  0.00000000E+00  0.00000000E+00  0.00000000E+00
  0.00000000E+00  0.00000000E+00  0.00000000E+00  0.00000000E+00  0.00000000E+00
  0.00000000E+00  0.00000000E+00  0.00000000E+00  0.00000000E+00  0.00000000E+00
  0.00000000E+00  0.00000000E+00  0.00000000E+00  0.00000000E+00  0.00000000E+00
  0.00000000E+00  0.00000000E+00  0.00000000E+00  0.00000000E+00  0.00000000E+00
  0.00000000E+00  0.00000000E+00  0.00000000E+00  0.00000000E+00  0.00000000E+00
  0.00000000E+00  0.00000000E+00  0.00000000E+00  0.00000000E+00  0.00000000E+00
  0.00000000E+00  0.00000000E+00
MO   11                    OCC NO =   0.33333333 ORB. ENERGY =  -0.23301470
  0.00000000E+00  0.00000000E+00  0.00000000E+00  0.00000000E+00  0.00000000E+00
  0.00000000E+00  0.00000000E+00  0.00000000E+00  0.00000000E+00  0.00000000E+00
  0.00000000E+00  0.00000000E+00  0.00000000E+00  0.00000000E+00  0.00000000E+00
  0.00000000E+00  0.00000000E+00  9.28169364E-01  0.00000000E+00  0.00000000E+00
  1.19334349E+00  0.00000000E+00  0.00000000E+00  1.32191962E+00  0.00000000E+00
  0.00000000E+00  1.22542252E+00  0.00000000E+00  0.00000000E+00  8.53642901E-01
  0.00000000E+00  0.00000000E+00  3.84252600E-01  0.00000000E+00  0.00000000E+00
  1.17024025E-01  0.00000000E+00  0.00000000E+00  2.73153491E-02  0.00000000E+00
  0.00000000E+00  0.00000000E+00  0.00000000E+00  0.00000000E+00  0.00000000E+00
  0.00000000E+00  0.00000000E+00  0.00000000E+00  0.00000000E+00  0.00000000E+00
  0.00000000E+00  0.00000000E+00  0.00000000E+00  0.00000000E+00  0.00000000E+00
  0.00000000E+00  0.00000000E+00  0.00000000E+00  0.00000000E+00  0.00000000E+00
  0.00000000E+00  0.00000000E+00  0.00000000E+00  0.00000000E+00  0.00000000E+00
  0.00000000E+00  0.00000000E+00  0.00000000E+00  0.00000000E+00  0.00000000E+00
  0.00000000E+00  0.00000000E+00  0.00000000E+00  0.00000000E+00  0.00000000E+00
  0.00000000E+00  0.00000000E+00  0.00000000E+00  0.00000000E+00  0.00000000E+00
  0.00000000E+00  0.00000000E+00  0.00000000E+00  0.00000000E+00  0.00000000E+00
  0.00000000E+00  0.00000000E+00  0.00000000E+00  0.00000000E+00  0.00000000E+00
  0.00000000E+00  0.00000000E+00
END DATA
SCF      ENERGY =     -75.011796292694   VIRIAL(-V/T)  =   2.00000000

$MOSPIN
 1 1 1 1 1 2 2 2 2 2
$END
