atomref-proatoms Os_q0_mult5_nist x2c-QZVPall
GAUSSIAN             80 MOL ORBITALS    377 PRIMITIVES        1 NUCLEI
  Os   1    (CENTRE  1)   0.00000000  0.00000000  0.00000000  CHARGE = 76.0
CENTRE ASSIGNMENTS    1  1  1  1  1  1  1  1  1  1  1  1  1  1  1  1  1  1  1  1
CENTRE ASSIGNMENTS    1  1  1  1  1  1  1  1  1  1  1  1  1  1  1  1  1  1  1  1
CENTRE ASSIGNMENTS    1  1  1  1  1  1  1  1  1  1  1  1  1  1  1  1  1  1  1  1
CENTRE ASSIGNMENTS    1  1  1  1  1  1  1  1  1  1  1  1  1  1  1  1  1  1  1  1
CENTRE ASSIGNMENTS    1  1  1  1  1  1  1  1  1  1  1  1  1  1  1  1  1  1  1  1
CENTRE ASSIGNMENTS    1  1  1  1  1  1  1  1  1  1  1  1  1  1  1  1  1  1  1  1
CENTRE ASSIGNMENTS    1  1  1  1  1  1  1  1  1  1  1  1  1  1  1  1  1  1  1  1
CENTRE ASSIGNMENTS    1  1  1  1  1  1  1  1  1  1  1  1  1  1  1  1  1  1  1  1
CENTRE ASSIGNMENTS    1  1  1  1  1  1  1  1  1  1  1  1  1  1  1  1  1  1  1  1
CENTRE ASSIGNMENTS    1  1  1  1  1  1  1  1  1  1  1  1  1  1  1  1  1  1  1  1
CENTRE ASSIGNMENTS    1  1  1  1  1  1  1  1  1  1  1  1  1  1  1  1  1  1  1  1
CENTRE ASSIGNMENTS    1  1  1  1  1  1  1  1  1  1  1  1  1  1  1  1  1  1  1  1
CENTRE ASSIGNMENTS    1  1  1  1  1  1  1  1  1  1  1  1  1  1  1  1  1  1  1  1
CENTRE ASSIGNMENTS    1  1  1  1  1  1  1  1  1  1  1  1  1  1  1  1  1  1  1  1
CENTRE ASSIGNMENTS    1  1  1  1  1  1  1  1  1  1  1  1  1  1  1  1  1  1  1  1
CENTRE ASSIGNMENTS    1  1  1  1  1  1  1  1  1  1  1  1  1  1  1  1  1  1  1  1
CENTRE ASSIGNMENTS    1  1  1  1  1  1  1  1  1  1  1  1  1  1  1  1  1  1  1  1
CENTRE ASSIGNMENTS    1  1  1  1  1  1  1  1  1  1  1  1  1  1  1  1  1  1  1  1
CENTRE ASSIGNMENTS    1  1  1  1  1  1  1  1  1  1  1  1  1  1  1  1  1
TYPE ASSIGNMENTS      1  1  1  1  1  1  1  1  1  1  1  1  1  1  1  1  1  1  1  1
TYPE ASSIGNMENTS      1  1  1  1  1  1  1  1  1  1  2  3  4  2  3  4  2  3  4  2
TYPE ASSIGNMENTS      3  4  2  3  4  2  3  4  2  3  4  2  3  4  2  3  4  2  3  4
TYPE ASSIGNMENTS      2  3  4  2  3  4  2  3  4  2  3  4  2  3  4  2  3  4  2  3
TYPE ASSIGNMENTS      4  2  3  4  2  3  4  2  3  4  2  3  4  2  3  4  2  3  4  2
TYPE ASSIGNMENTS      3  4  2  3  4  2  3  4  2  3  4  2  3  4  2  3  4  2  3  4
TYPE ASSIGNMENTS      2  3  4  2  3  4  2  3  4  2  3  4  5  8  9  6 10  7  5  8
TYPE ASSIGNMENTS      9  6 10  7  5  8  9  6 10  7  5  8  9  6 10  7  5  8  9  6
TYPE ASSIGNMENTS     10  7  5  8  9  6 10  7  5  8  9  6 10  7  5  8  9  6 10  7
TYPE ASSIGNMENTS      5  8  9  6 10  7  5  8  9  6 10  7  5  8  9  6 10  7  5  8
TYPE ASSIGNMENTS      9  6 10  7  5  8  9  6 10  7  5  8  9  6 10  7  5  8  9  6
TYPE ASSIGNMENTS     10  7  5  8  9  6 10  7  5  8  9  6 10  7  5  8  9  6 10  7
TYPE ASSIGNMENTS      5  8  9  6 10  7  5  8  9  6 10  7 11 14 15 17 20 18 12 16
TYPE ASSIGNMENTS     19 13 11 14 15 17 20 18 12 16 19 13 11 14 15 17 20 18 12 16
TYPE ASSIGNMENTS     19 13 11 14 15 17 20 18 12 16 19 13 11 14 15 17 20 18 12 16
TYPE ASSIGNMENTS     19 13 11 14 15 17 20 18 12 16 19 13 11 14 15 17 20 18 12 16
TYPE ASSIGNMENTS     19 13 11 14 15 17 20 18 12 16 19 13 11 14 15 17 20 18 12 16
TYPE ASSIGNMENTS     19 13 11 14 15 17 20 18 12 16 19 13 11 14 15 17 20 18 12 16
TYPE ASSIGNMENTS     19 13 21 24 25 30 33 31 26 34 35 28 22 27 32 29 23
EXPONENTS  7.0758351E+07 1.8988310E+07 5.6763961E+06 1.7604418E+06 6.0451723E+05
EXPONENTS  2.1453500E+05 7.8865141E+04 3.1801495E+04 1.3434280E+04 6.1487774E+03
EXPONENTS  2.9082208E+03 1.3121883E+03 7.0575219E+04 1.5492047E+04 4.6312623E+03
EXPONENTS  1.7034696E+03 6.4352769E+02 3.8693728E+02 1.7098662E+02 8.5437557E+01
EXPONENTS  4.2339111E+01 2.2458672E+01 1.0844602E+01 5.6427195E+00 2.5524965E+00
EXPONENTS  1.5269348E+00 6.8549474E-01 2.4280941E-01 1.0422624E-01 4.0661368E-02
EXPONENTS  2.7000000E+02 2.7000000E+02 2.7000000E+02 9.6379033E+06 9.6379033E+06
EXPONENTS  9.6379033E+06 1.9516232E+06 1.9516232E+06 1.9516232E+06 5.2890948E+05
EXPONENTS  5.2890948E+05 5.2890948E+05 1.6291151E+05 1.6291151E+05 1.6291151E+05
EXPONENTS  5.4391691E+04 5.4391691E+04 5.4391691E+04 1.9083295E+04 1.9083295E+04
EXPONENTS  1.9083295E+04 7.1038800E+03 7.1038800E+03 7.1038800E+03 2.8192034E+03
EXPONENTS  2.8192034E+03 2.8192034E+03 1.1722323E+03 1.1722323E+03 1.1722323E+03
EXPONENTS  5.2059966E+02 5.2059966E+02 5.2059966E+02 2.4680723E+02 2.4680723E+02
EXPONENTS  2.4680723E+02 1.2280202E+02 1.2280202E+02 1.2280202E+02 6.1944135E+01
EXPONENTS  6.1944135E+01 6.1944135E+01 1.9077895E+03 1.9077895E+03 1.9077895E+03
EXPONENTS  6.5158474E+02 6.5158474E+02 6.5158474E+02 2.9019651E+02 2.9019651E+02
EXPONENTS  2.9019651E+02 7.2045616E+01 7.2045616E+01 7.2045616E+01 3.7543512E+01
EXPONENTS  3.7543512E+01 3.7543512E+01 1.9240414E+01 1.9240414E+01 1.9240414E+01
EXPONENTS  8.4276907E+00 8.4276907E+00 8.4276907E+00 9.8423386E+01 9.8423386E+01
EXPONENTS  9.8423386E+01 3.9643798E+01 3.9643798E+01 3.9643798E+01 1.1609649E+01
EXPONENTS  1.1609649E+01 1.1609649E+01 6.2271466E+00 6.2271466E+00 6.2271466E+00
EXPONENTS  3.1512738E+00 3.1512738E+00 3.1512738E+00 6.0688737E+00 6.0688737E+00
EXPONENTS  6.0688737E+00 1.9045831E+00 1.9045831E+00 1.9045831E+00 9.9902427E-01
EXPONENTS  9.9902427E-01 9.9902427E-01 1.1677356E+00 1.1677356E+00 1.1677356E+00
EXPONENTS  4.4190964E-01 4.4190964E-01 4.4190964E-01 1.9970687E-01 1.9970687E-01
EXPONENTS  1.9970687E-01 1.0395338E-01 1.0395338E-01 1.0395338E-01 3.1576769E-02
EXPONENTS  3.1576769E-02 3.1576769E-02 6.3086613E+03 6.3086613E+03 6.3086613E+03
EXPONENTS  6.3086613E+03 6.3086613E+03 6.3086613E+03 1.8346742E+03 1.8346742E+03
EXPONENTS  1.8346742E+03 1.8346742E+03 1.8346742E+03 1.8346742E+03 7.1929066E+02
EXPONENTS  7.1929066E+02 7.1929066E+02 7.1929066E+02 7.1929066E+02 7.1929066E+02
EXPONENTS  3.1870216E+02 3.1870216E+02 3.1870216E+02 3.1870216E+02 3.1870216E+02
EXPONENTS  3.1870216E+02 1.5335489E+02 1.5335489E+02 1.5335489E+02 1.5335489E+02
EXPONENTS  1.5335489E+02 1.5335489E+02 7.7007671E+01 7.7007671E+01 7.7007671E+01
EXPONENTS  7.7007671E+01 7.7007671E+01 7.7007671E+01 3.9184747E+01 3.9184747E+01
EXPONENTS  3.9184747E+01 3.9184747E+01 3.9184747E+01 3.9184747E+01 1.9818907E+01
EXPONENTS  1.9818907E+01 1.9818907E+01 1.9818907E+01 1.9818907E+01 1.9818907E+01
EXPONENTS  4.0500000E+01 4.0500000E+01 4.0500000E+01 4.0500000E+01 4.0500000E+01
EXPONENTS  4.0500000E+01 3.3621654E+02 3.3621654E+02 3.3621654E+02 3.3621654E+02
EXPONENTS  3.3621654E+02 3.3621654E+02 1.1863807E+02 1.1863807E+02 1.1863807E+02
EXPONENTS  1.1863807E+02 1.1863807E+02 1.1863807E+02 2.5195388E+01 2.5195388E+01
EXPONENTS  2.5195388E+01 2.5195388E+01 2.5195388E+01 2.5195388E+01 9.6207017E+00
EXPONENTS  9.6207017E+00 9.6207017E+00 9.6207017E+00 9.6207017E+00 9.6207017E+00
EXPONENTS  1.4714932E+01 1.4714932E+01 1.4714932E+01 1.4714932E+01 1.4714932E+01
EXPONENTS  1.4714932E+01 5.3123069E+00 5.3123069E+00 5.3123069E+00 5.3123069E+00
EXPONENTS  5.3123069E+00 5.3123069E+00 2.6093049E+00 2.6093049E+00 2.6093049E+00
EXPONENTS  2.6093049E+00 2.6093049E+00 2.6093049E+00 1.1430306E+00 1.1430306E+00
EXPONENTS  1.1430306E+00 1.1430306E+00 1.1430306E+00 1.1430306E+00 4.6012636E-01
EXPONENTS  4.6012636E-01 4.6012636E-01 4.6012636E-01 4.6012636E-01 4.6012636E-01
EXPONENTS  1.7462472E-01 1.7462472E-01 1.7462472E-01 1.7462472E-01 1.7462472E-01
EXPONENTS  1.7462472E-01 6.1651434E-02 6.1651434E-02 6.1651434E-02 6.1651434E-02
EXPONENTS  6.1651434E-02 6.1651434E-02 7.8000000E+00 7.8000000E+00 7.8000000E+00
EXPONENTS  7.8000000E+00 7.8000000E+00 7.8000000E+00 7.8000000E+00 7.8000000E+00
EXPONENTS  7.8000000E+00 7.8000000E+00 4.0675025E+02 4.0675025E+02 4.0675025E+02
EXPONENTS  4.0675025E+02 4.0675025E+02 4.0675025E+02 4.0675025E+02 4.0675025E+02
EXPONENTS  4.0675025E+02 4.0675025E+02 1.4020676E+02 1.4020676E+02 1.4020676E+02
EXPONENTS  1.4020676E+02 1.4020676E+02 1.4020676E+02 1.4020676E+02 1.4020676E+02
EXPONENTS  1.4020676E+02 1.4020676E+02 5.9718960E+01 5.9718960E+01 5.9718960E+01
EXPONENTS  5.9718960E+01 5.9718960E+01 5.9718960E+01 5.9718960E+01 5.9718960E+01
EXPONENTS  5.9718960E+01 5.9718960E+01 2.7720885E+01 2.7720885E+01 2.7720885E+01
EXPONENTS  2.7720885E+01 2.7720885E+01 2.7720885E+01 2.7720885E+01 2.7720885E+01
EXPONENTS  2.7720885E+01 2.7720885E+01 1.3415184E+01 1.3415184E+01 1.3415184E+01
EXPONENTS  1.3415184E+01 1.3415184E+01 1.3415184E+01 1.3415184E+01 1.3415184E+01
EXPONENTS  1.3415184E+01 1.3415184E+01 6.4630306E+00 6.4630306E+00 6.4630306E+00
EXPONENTS  6.4630306E+00 6.4630306E+00 6.4630306E+00 6.4630306E+00 6.4630306E+00
EXPONENTS  6.4630306E+00 6.4630306E+00 3.0463825E+00 3.0463825E+00 3.0463825E+00
EXPONENTS  3.0463825E+00 3.0463825E+00 3.0463825E+00 3.0463825E+00 3.0463825E+00
EXPONENTS  3.0463825E+00 3.0463825E+00 1.3802600E+00 1.3802600E+00 1.3802600E+00
EXPONENTS  1.3802600E+00 1.3802600E+00 1.3802600E+00 1.3802600E+00 1.3802600E+00
EXPONENTS  1.3802600E+00 1.3802600E+00 5.5065000E-01 5.5065000E-01 5.5065000E-01
EXPONENTS  5.5065000E-01 5.5065000E-01 5.5065000E-01 5.5065000E-01 5.5065000E-01
EXPONENTS  5.5065000E-01 5.5065000E-01 2.1968000E-01 2.1968000E-01 2.1968000E-01
EXPONENTS  2.1968000E-01 2.1968000E-01 2.1968000E-01 2.1968000E-01 2.1968000E-01
EXPONENTS  2.1968000E-01 2.1968000E-01 7.5489000E-01 7.5489000E-01 7.5489000E-01
EXPONENTS  7.5489000E-01 7.5489000E-01 7.5489000E-01 7.5489000E-01 7.5489000E-01
EXPONENTS  7.5489000E-01 7.5489000E-01 7.5489000E-01 7.5489000E-01 7.5489000E-01
EXPONENTS  7.5489000E-01 7.5489000E-01
MO    1                     OCC NO =   1.00000000 ORB. ENERGY = -2712.10753457
  2.02675863E+02  2.05291381E+02  1.78686449E+02  1.48204763E+02  1.24133256E+02
  1.15431489E+02  1.01701164E+02  9.43796619E+01  8.86230433E+01  7.67051188E+01
  6.81871375E+01  4.38976752E+01  1.48808494E+00  3.37668241E+00  6.34183535E+00
  8.92220060E+00  1.76455325E+01  2.74774683E+00  6.26848325E-01 -2.14666986E-01
  9.65932476E-02 -4.32180623E-02  1.64035067E-02 -6.67061768E-03  2.61334879E-03
 -1.15100812E-03  1.92616010E-04 -3.27530018E-05  8.35852596E-06 -1.07328487E-06
  0.00000000E+00  0.00000000E+00  0.00000000E+00  0.00000000E+00  0.00000000E+00
  0.00000000E+00  0.00000000E+00  0.00000000E+00  0.00000000E+00  0.00000000E+00
  0.00000000E+00  0.00000000E+00  0.00000000E+00  0.00000000E+00  0.00000000E+00
  0.00000000E+00  0.00000000E+00  0.00000000E+00  0.00000000E+00  0.00000000E+00
  0.00000000E+00  0.00000000E+00  0.00000000E+00  0.00000000E+00  0.00000000E+00
  0.00000000E+00  0.00000000E+00  0.00000000E+00  0.00000000E+00  0.00000000E+00
  0.00000000E+00  0.00000000E+00  0.00000000E+00  0.00000000E+00  0.00000000E+00
  0.00000000E+00  0.00000000E+00  0.00000000E+00  0.00000000E+00  0.00000000E+00
  0.00000000E+00  0.00000000E+00  0.00000000E+00  0.00000000E+00  0.00000000E+00
  0.00000000E+00  0.00000000E+00  0.00000000E+00  0.00000000E+00  0.00000000E+00
  0.00000000E+00  0.00000000E+00  0.00000000E+00  0.00000000E+00  0.00000000E+00
  0.00000000E+00  0.00000000E+00  0.00000000E+00  0.00000000E+00  0.00000000E+00
  0.00000000E+00  0.00000000E+00  0.00000000E+00  0.00000000E+00  0.00000000E+00
  0.00000000E+00  0.00000000E+00  0.00000000E+00  0.00000000E+00  0.00000000E+00
  0.00000000E+00  0.00000000E+00  0.00000000E+00  0.00000000E+00  0.00000000E+00
  0.00000000E+00  0.00000000E+00  0.00000000E+00  0.00000000E+00  0.00000000E+00
  0.00000000E+00  0.00000000E+00  0.00000000E+00  0.00000000E+00  0.00000000E+00
  0.00000000E+00  0.00000000E+00  0.00000000E+00  0.00000000E+00  0.00000000E+00
  0.00000000E+00  0.00000000E+00  0.00000000E+00  0.00000000E+00  0.00000000E+00
  0.00000000E+00  0.00000000E+00  0.00000000E+00  0.00000000E+00  0.00000000E+00
  0.00000000E+00  0.00000000E+00  0.00000000E+00  0.00000000E+00  0.00000000E+00
  0.00000000E+00  0.00000000E+00  0.00000000E+00  0.00000000E+00  0.00000000E+00
  0.00000000E+00  0.00000000E+00  0.00000000E+00  0.00000000E+00  0.00000000E+00
  0.00000000E+00  0.00000000E+00  0.00000000E+00  0.00000000E+00  0.00000000E+00
  0.00000000E+00  0.00000000E+00  0.00000000E+00  0.00000000E+00  0.00000000E+00
  0.00000000E+00  0.00000000E+00  0.00000000E+00  0.00000000E+00  0.00000000E+00
  0.00000000E+00  0.00000000E+00  0.00000000E+00  0.00000000E+00  0.00000000E+00
  0.00000000E+00  0.00000000E+00  0.00000000E+00  0.00000000E+00  0.00000000E+00
  0.00000000E+00  0.00000000E+00  0.00000000E+00  0.00000000E+00  0.00000000E+00
  0.00000000E+00  0.00000000E+00  0.00000000E+00  0.00000000E+00  0.00000000E+00
  0.00000000E+00  0.00000000E+00  0.00000000E+00  0.00000000E+00  0.00000000E+00
  0.00000000E+00  0.00000000E+00  0.00000000E+00  0.00000000E+00  0.00000000E+00
  0.00000000E+00  0.00000000E+00  0.00000000E+00  0.00000000E+00  0.00000000E+00
  0.00000000E+00  0.00000000E+00  0.00000000E+00  0.00000000E+00  0.00000000E+00
  0.00000000E+00  0.00000000E+00  0.00000000E+00  0.00000000E+00  0.00000000E+00
  0.00000000E+00  0.00000000E+00  0.00000000E+00  0.00000000E+00  0.00000000E+00
  0.00000000E+00  0.00000000E+00  0.00000000E+00  0.00000000E+00  0.00000000E+00
  0.00000000E+00  0.00000000E+00  0.00000000E+00  0.00000000E+00  0.00000000E+00
  0.00000000E+00  0.00000000E+00  0.00000000E+00  0.00000000E+00  0.00000000E+00
  0.00000000E+00  0.00000000E+00  0.00000000E+00  0.00000000E+00  0.00000000E+00
  0.00000000E+00  0.00000000E+00  0.00000000E+00  0.00000000E+00  0.00000000E+00
  0.00000000E+00  0.00000000E+00  0.00000000E+00  0.00000000E+00  0.00000000E+00
  0.00000000E+00  0.00000000E+00  0.00000000E+00  0.00000000E+00  0.00000000E+00
  0.00000000E+00  0.00000000E+00  0.00000000E+00  0.00000000E+00  0.00000000E+00
  0.00000000E+00  0.00000000E+00  0.00000000E+00  0.00000000E+00  0.00000000E+00
  0.00000000E+00  0.00000000E+00  0.00000000E+00  0.00000000E+00  0.00000000E+00
  0.00000000E+00  0.00000000E+00  0.00000000E+00  0.00000000E+00  0.00000000E+00
  0.00000000E+00  0.00000000E+00  0.00000000E+00  0.00000000E+00  0.00000000E+00
  0.00000000E+00  0.00000000E+00  0.00000000E+00  0.00000000E+00  0.00000000E+00
  0.00000000E+00  0.00000000E+00  0.00000000E+00  0.00000000E+00  0.00000000E+00
  0.00000000E+00  0.00000000E+00  0.00000000E+00  0.00000000E+00  0.00000000E+00
  0.00000000E+00  0.00000000E+00  0.00000000E+00  0.00000000E+00  0.00000000E+00
  0.00000000E+00  0.00000000E+00  0.00000000E+00  0.00000000E+00  0.00000000E+00
  0.00000000E+00  0.00000000E+00  0.00000000E+00  0.00000000E+00  0.00000000E+00
  0.00000000E+00  0.00000000E+00  0.00000000E+00  0.00000000E+00  0.00000000E+00
  0.00000000E+00  0.00000000E+00  0.00000000E+00  0.00000000E+00  0.00000000E+00
  0.00000000E+00  0.00000000E+00  0.00000000E+00  0.00000000E+00  0.00000000E+00
  0.00000000E+00  0.00000000E+00  0.00000000E+00  0.00000000E+00  0.00000000E+00
  0.00000000E+00  0.00000000E+00  0.00000000E+00  0.00000000E+00  0.00000000E+00
  0.00000000E+00  0.00000000E+00  0.00000000E+00  0.00000000E+00  0.00000000E+00
  0.00000000E+00  0.00000000E+00  0.00000000E+00  0.00000000E+00  0.00000000E+00
  0.00000000E+00  0.00000000E+00  0.00000000E+00  0.00000000E+00  0.00000000E+00
  0.00000000E+00  0.00000000E+00  0.00000000E+00  0.00000000E+00  0.00000000E+00
  0.00000000E+00  0.00000000E+00  0.00000000E+00  0.00000000E+00  0.00000000E+00
  0.00000000E+00  0.00000000E+00  0.00000000E+00  0.00000000E+00  0.00000000E+00
  0.00000000E+00  0.00000000E+00  0.00000000E+00  0.00000000E+00  0.00000000E+00
  0.00000000E+00  0.00000000E+00  0.00000000E+00  0.00000000E+00  0.00000000E+00
  0.00000000E+00  0.00000000E+00  0.00000000E+00  0.00000000E+00  0.00000000E+00
  0.00000000E+00  0.00000000E+00  0.00000000E+00  0.00000000E+00  0.00000000E+00
  0.00000000E+00  0.00000000E+00
MO    2                     OCC NO =   1.00000000 ORB. ENERGY = -473.61916730
 -7.91988428E+01 -8.02208981E+01 -6.98245944E+01 -5.79133872E+01 -4.85070598E+01
 -4.51067047E+01 -3.97413602E+01 -3.68803659E+01 -3.46308749E+01 -2.99737549E+01
 -2.66452171E+01 -1.71537203E+01 -2.53187146E+00 -5.74518674E+00 -1.07901851E+01
 -1.51804944E+01 -1.53765193E+01  1.07213555E+01  1.87041098E+01  8.33003321E+00
  7.33171790E-01 -5.63329068E-03 -6.42183919E-05  4.12711406E-04 -2.84675644E-04
  1.39695407E-04 -2.43794563E-05  4.36479998E-06 -1.12302022E-06  1.44826258E-07
  0.00000000E+00  0.00000000E+00  0.00000000E+00  0.00000000E+00  0.00000000E+00
  0.00000000E+00  0.00000000E+00  0.00000000E+00  0.00000000E+00  0.00000000E+00
  0.00000000E+00  0.00000000E+00  0.00000000E+00  0.00000000E+00  0.00000000E+00
  0.00000000E+00  0.00000000E+00  0.00000000E+00  0.00000000E+00  0.00000000E+00
  0.00000000E+00  0.00000000E+00  0.00000000E+00  0.00000000E+00  0.00000000E+00
  0.00000000E+00  0.00000000E+00  0.00000000E+00  0.00000000E+00  0.00000000E+00
  0.00000000E+00  0.00000000E+00  0.00000000E+00  0.00000000E+00  0.00000000E+00
  0.00000000E+00  0.00000000E+00  0.00000000E+00  0.00000000E+00  0.00000000E+00
  0.00000000E+00  0.00000000E+00  0.00000000E+00  0.00000000E+00  0.00000000E+00
  0.00000000E+00  0.00000000E+00  0.00000000E+00  0.00000000E+00  0.00000000E+00
  0.00000000E+00  0.00000000E+00  0.00000000E+00  0.00000000E+00  0.00000000E+00
  0.00000000E+00  0.00000000E+00  0.00000000E+00  0.00000000E+00  0.00000000E+00
  0.00000000E+00  0.00000000E+00  0.00000000E+00  0.00000000E+00  0.00000000E+00
  0.00000000E+00  0.00000000E+00  0.00000000E+00  0.00000000E+00  0.00000000E+00
  0.00000000E+00  0.00000000E+00  0.00000000E+00  0.00000000E+00  0.00000000E+00
  0.00000000E+00  0.00000000E+00  0.00000000E+00  0.00000000E+00  0.00000000E+00
  0.00000000E+00  0.00000000E+00  0.00000000E+00  0.00000000E+00  0.00000000E+00
  0.00000000E+00  0.00000000E+00  0.00000000E+00  0.00000000E+00  0.00000000E+00
  0.00000000E+00  0.00000000E+00  0.00000000E+00  0.00000000E+00  0.00000000E+00
  0.00000000E+00  0.00000000E+00  0.00000000E+00  0.00000000E+00  0.00000000E+00
  0.00000000E+00  0.00000000E+00  0.00000000E+00  0.00000000E+00  0.00000000E+00
  0.00000000E+00  0.00000000E+00  0.00000000E+00  0.00000000E+00  0.00000000E+00
  0.00000000E+00  0.00000000E+00  0.00000000E+00  0.00000000E+00  0.00000000E+00
  0.00000000E+00  0.00000000E+00  0.00000000E+00  0.00000000E+00  0.00000000E+00
  0.00000000E+00  0.00000000E+00  0.00000000E+00  0.00000000E+00  0.00000000E+00
  0.00000000E+00  0.00000000E+00  0.00000000E+00  0.00000000E+00  0.00000000E+00
  0.00000000E+00  0.00000000E+00  0.00000000E+00  0.00000000E+00  0.00000000E+00
  0.00000000E+00  0.00000000E+00  0.00000000E+00  0.00000000E+00  0.00000000E+00
  0.00000000E+00  0.00000000E+00  0.00000000E+00  0.00000000E+00  0.00000000E+00
  0.00000000E+00  0.00000000E+00  0.00000000E+00  0.00000000E+00  0.00000000E+00
  0.00000000E+00  0.00000000E+00  0.00000000E+00  0.00000000E+00  0.00000000E+00
  0.00000000E+00  0.00000000E+00  0.00000000E+00  0.00000000E+00  0.00000000E+00
  0.00000000E+00  0.00000000E+00  0.00000000E+00  0.00000000E+00  0.00000000E+00
  0.00000000E+00  0.00000000E+00  0.00000000E+00  0.00000000E+00  0.00000000E+00
  0.00000000E+00  0.00000000E+00  0.00000000E+00  0.00000000E+00  0.00000000E+00
  0.00000000E+00  0.00000000E+00  0.00000000E+00  0.00000000E+00  0.00000000E+00
  0.00000000E+00  0.00000000E+00  0.00000000E+00  0.00000000E+00  0.00000000E+00
  0.00000000E+00  0.00000000E+00  0.00000000E+00  0.00000000E+00  0.00000000E+00
  0.00000000E+00  0.00000000E+00  0.00000000E+00  0.00000000E+00  0.00000000E+00
  0.00000000E+00  0.00000000E+00  0.00000000E+00  0.00000000E+00  0.00000000E+00
  0.00000000E+00  0.00000000E+00  0.00000000E+00  0.00000000E+00  0.00000000E+00
  0.00000000E+00  0.00000000E+00  0.00000000E+00  0.00000000E+00  0.00000000E+00
  0.00000000E+00  0.00000000E+00  0.00000000E+00  0.00000000E+00  0.00000000E+00
  0.00000000E+00  0.00000000E+00  0.00000000E+00  0.00000000E+00  0.00000000E+00
  0.00000000E+00  0.00000000E+00  0.00000000E+00  0.00000000E+00  0.00000000E+00
  0.00000000E+00  0.00000000E+00  0.00000000E+00  0.00000000E+00  0.00000000E+00
  0.00000000E+00  0.00000000E+00  0.00000000E+00  0.00000000E+00  0.00000000E+00
  0.00000000E+00  0.00000000E+00  0.00000000E+00  0.00000000E+00  0.00000000E+00
  0.00000000E+00  0.00000000E+00  0.00000000E+00  0.00000000E+00  0.00000000E+00
  0.00000000E+00  0.00000000E+00  0.00000000E+00  0.00000000E+00  0.00000000E+00
  0.00000000E+00  0.00000000E+00  0.00000000E+00  0.00000000E+00  0.00000000E+00
  0.00000000E+00  0.00000000E+00  0.00000000E+00  0.00000000E+00  0.00000000E+00
  0.00000000E+00  0.00000000E+00  0.00000000E+00  0.00000000E+00  0.00000000E+00
  0.00000000E+00  0.00000000E+00  0.00000000E+00  0.00000000E+00  0.00000000E+00
  0.00000000E+00  0.00000000E+00  0.00000000E+00  0.00000000E+00  0.00000000E+00
  0.00000000E+00  0.00000000E+00  0.00000000E+00  0.00000000E+00  0.00000000E+00
  0.00000000E+00  0.00000000E+00  0.00000000E+00  0.00000000E+00  0.00000000E+00
  0.00000000E+00  0.00000000E+00  0.00000000E+00  0.00000000E+00  0.00000000E+00
  0.00000000E+00  0.00000000E+00  0.00000000E+00  0.00000000E+00  0.00000000E+00
  0.00000000E+00  0.00000000E+00  0.00000000E+00  0.00000000E+00  0.00000000E+00
  0.00000000E+00  0.00000000E+00  0.00000000E+00  0.00000000E+00  0.00000000E+00
  0.00000000E+00  0.00000000E+00  0.00000000E+00  0.00000000E+00  0.00000000E+00
  0.00000000E+00  0.00000000E+00  0.00000000E+00  0.00000000E+00  0.00000000E+00
  0.00000000E+00  0.00000000E+00  0.00000000E+00  0.00000000E+00  0.00000000E+00
  0.00000000E+00  0.00000000E+00  0.00000000E+00  0.00000000E+00  0.00000000E+00
  0.00000000E+00  0.00000000E+00  0.00000000E+00  0.00000000E+00  0.00000000E+00
  0.00000000E+00  0.00000000E+00  0.00000000E+00  0.00000000E+00  0.00000000E+00
  0.00000000E+00  0.00000000E+00  0.00000000E+00  0.00000000E+00  0.00000000E+00
  0.00000000E+00  0.00000000E+00  0.00000000E+00  0.00000000E+00  0.00000000E+00
  0.00000000E+00  0.00000000E+00
MO    3                     OCC NO =   1.00000000 ORB. ENERGY = -110.84696943
  3.77484588E+01  3.82355999E+01  3.32804209E+01  2.76031951E+01  2.31198675E+01
  2.14991599E+01  1.89418815E+01  1.75782489E+01  1.65060765E+01  1.42863584E+01
  1.26998810E+01  8.17595917E+00  1.40664504E+00  3.19188338E+00  5.99475947E+00
  8.43390653E+00  8.59563811E+00 -7.77283215E+00 -1.72167442E+01 -9.47133426E+00
  5.43373566E+00  5.79291977E+00  8.01241509E-01 -4.86621806E-02  1.71862797E-02
 -7.07774388E-03  1.12599570E-03 -1.90483351E-04  4.85025071E-05 -6.23084422E-06
  0.00000000E+00  0.00000000E+00  0.00000000E+00  0.00000000E+00  0.00000000E+00
  0.00000000E+00  0.00000000E+00  0.00000000E+00  0.00000000E+00  0.00000000E+00
  0.00000000E+00  0.00000000E+00  0.00000000E+00  0.00000000E+00  0.00000000E+00
  0.00000000E+00  0.00000000E+00  0.00000000E+00  0.00000000E+00  0.00000000E+00
  0.00000000E+00  0.00000000E+00  0.00000000E+00  0.00000000E+00  0.00000000E+00
  0.00000000E+00  0.00000000E+00  0.00000000E+00  0.00000000E+00  0.00000000E+00
  0.00000000E+00  0.00000000E+00  0.00000000E+00  0.00000000E+00  0.00000000E+00
  0.00000000E+00  0.00000000E+00  0.00000000E+00  0.00000000E+00  0.00000000E+00
  0.00000000E+00  0.00000000E+00  0.00000000E+00  0.00000000E+00  0.00000000E+00
  0.00000000E+00  0.00000000E+00  0.00000000E+00  0.00000000E+00  0.00000000E+00
  0.00000000E+00  0.00000000E+00  0.00000000E+00  0.00000000E+00  0.00000000E+00
  0.00000000E+00  0.00000000E+00  0.00000000E+00  0.00000000E+00  0.00000000E+00
  0.00000000E+00  0.00000000E+00  0.00000000E+00  0.00000000E+00  0.00000000E+00
  0.00000000E+00  0.00000000E+00  0.00000000E+00  0.00000000E+00  0.00000000E+00
  0.00000000E+00  0.00000000E+00  0.00000000E+00  0.00000000E+00  0.00000000E+00
  0.00000000E+00  0.00000000E+00  0.00000000E+00  0.00000000E+00  0.00000000E+00
  0.00000000E+00  0.00000000E+00  0.00000000E+00  0.00000000E+00  0.00000000E+00
  0.00000000E+00  0.00000000E+00  0.00000000E+00  0.00000000E+00  0.00000000E+00
  0.00000000E+00  0.00000000E+00  0.00000000E+00  0.00000000E+00  0.00000000E+00
  0.00000000E+00  0.00000000E+00  0.00000000E+00  0.00000000E+00  0.00000000E+00
  0.00000000E+00  0.00000000E+00  0.00000000E+00  0.00000000E+00  0.00000000E+00
  0.00000000E+00  0.00000000E+00  0.00000000E+00  0.00000000E+00  0.00000000E+00
  0.00000000E+00  0.00000000E+00  0.00000000E+00  0.00000000E+00  0.00000000E+00
  0.00000000E+00  0.00000000E+00  0.00000000E+00  0.00000000E+00  0.00000000E+00
  0.00000000E+00  0.00000000E+00  0.00000000E+00  0.00000000E+00  0.00000000E+00
  0.00000000E+00  0.00000000E+00  0.00000000E+00  0.00000000E+00  0.00000000E+00
  0.00000000E+00  0.00000000E+00  0.00000000E+00  0.00000000E+00  0.00000000E+00
  0.00000000E+00  0.00000000E+00  0.00000000E+00  0.00000000E+00  0.00000000E+00
  0.00000000E+00  0.00000000E+00  0.00000000E+00  0.00000000E+00  0.00000000E+00
  0.00000000E+00  0.00000000E+00  0.00000000E+00  0.00000000E+00  0.00000000E+00
  0.00000000E+00  0.00000000E+00  0.00000000E+00  0.00000000E+00  0.00000000E+00
  0.00000000E+00  0.00000000E+00  0.00000000E+00  0.00000000E+00  0.00000000E+00
  0.00000000E+00  0.00000000E+00  0.00000000E+00  0.00000000E+00  0.00000000E+00
  0.00000000E+00  0.00000000E+00  0.00000000E+00  0.00000000E+00  0.00000000E+00
  0.00000000E+00  0.00000000E+00  0.00000000E+00  0.00000000E+00  0.00000000E+00
  0.00000000E+00  0.00000000E+00  0.00000000E+00  0.00000000E+00  0.00000000E+00
  0.00000000E+00  0.00000000E+00  0.00000000E+00  0.00000000E+00  0.00000000E+00
  0.00000000E+00  0.00000000E+00  0.00000000E+00  0.00000000E+00  0.00000000E+00
  0.00000000E+00  0.00000000E+00  0.00000000E+00  0.00000000E+00  0.00000000E+00
  0.00000000E+00  0.00000000E+00  0.00000000E+00  0.00000000E+00  0.00000000E+00
  0.00000000E+00  0.00000000E+00  0.00000000E+00  0.00000000E+00  0.00000000E+00
  0.00000000E+00  0.00000000E+00  0.00000000E+00  0.00000000E+00  0.00000000E+00
  0.00000000E+00  0.00000000E+00  0.00000000E+00  0.00000000E+00  0.00000000E+00
  0.00000000E+00  0.00000000E+00  0.00000000E+00  0.00000000E+00  0.00000000E+00
  0.00000000E+00  0.00000000E+00  0.00000000E+00  0.00000000E+00  0.00000000E+00
  0.00000000E+00  0.00000000E+00  0.00000000E+00  0.00000000E+00  0.00000000E+00
  0.00000000E+00  0.00000000E+00  0.00000000E+00  0.00000000E+00  0.00000000E+00
  0.00000000E+00  0.00000000E+00  0.00000000E+00  0.00000000E+00  0.00000000E+00
  0.00000000E+00  0.00000000E+00  0.00000000E+00  0.00000000E+00  0.00000000E+00
  0.00000000E+00  0.00000000E+00  0.00000000E+00  0.00000000E+00  0.00000000E+00
  0.00000000E+00  0.00000000E+00  0.00000000E+00  0.00000000E+00  0.00000000E+00
  0.00000000E+00  0.00000000E+00  0.00000000E+00  0.00000000E+00  0.00000000E+00
  0.00000000E+00  0.00000000E+00  0.00000000E+00  0.00000000E+00  0.00000000E+00
  0.00000000E+00  0.00000000E+00  0.00000000E+00  0.00000000E+00  0.00000000E+00
  0.00000000E+00  0.00000000E+00  0.00000000E+00  0.00000000E+00  0.00000000E+00
  0.00000000E+00  0.00000000E+00  0.00000000E+00  0.00000000E+00  0.00000000E+00
  0.00000000E+00  0.00000000E+00  0.00000000E+00  0.00000000E+00  0.00000000E+00
  0.00000000E+00  0.00000000E+00  0.00000000E+00  0.00000000E+00  0.00000000E+00
  0.00000000E+00  0.00000000E+00  0.00000000E+00  0.00000000E+00  0.00000000E+00
  0.00000000E+00  0.00000000E+00  0.00000000E+00  0.00000000E+00  0.00000000E+00
  0.00000000E+00  0.00000000E+00  0.00000000E+00  0.00000000E+00  0.00000000E+00
  0.00000000E+00  0.00000000E+00  0.00000000E+00  0.00000000E+00  0.00000000E+00
  0.00000000E+00  0.00000000E+00  0.00000000E+00  0.00000000E+00  0.00000000E+00
  0.00000000E+00  0.00000000E+00  0.00000000E+00  0.00000000E+00  0.00000000E+00
  0.00000000E+00  0.00000000E+00  0.00000000E+00  0.00000000E+00  0.00000000E+00
  0.00000000E+00  0.00000000E+00  0.00000000E+00  0.00000000E+00  0.00000000E+00
  0.00000000E+00  0.00000000E+00  0.00000000E+00  0.00000000E+00  0.00000000E+00
  0.00000000E+00  0.00000000E+00  0.00000000E+00  0.00000000E+00  0.00000000E+00
  0.00000000E+00  0.00000000E+00  0.00000000E+00  0.00000000E+00  0.00000000E+00
  0.00000000E+00  0.00000000E+00
MO    4                     OCC NO =   1.00000000 ORB. ENERGY = -23.72187716
 -1.88301684E+01 -1.90731704E+01 -1.66013647E+01 -1.37693784E+01 -1.15329476E+01
 -1.07244856E+01 -9.44883132E+00 -8.76860669E+00 -8.23377192E+00 -7.12650378E+00
 -6.33511689E+00 -4.07843640E+00 -7.26785691E-01 -1.64918305E+00 -3.09737373E+00
 -4.35763281E+00 -4.46220021E+00  4.27661440E+00  1.01167309E+01  6.11009652E+00
 -5.26016965E+00 -7.43216965E+00  8.75071826E-01  2.67481172E+00  4.03904646E-01
 -3.17671560E-02  4.36633305E-03 -5.74403195E-04  1.40154945E-04 -1.76552221E-05
  0.00000000E+00  0.00000000E+00  0.00000000E+00  0.00000000E+00  0.00000000E+00
  0.00000000E+00  0.00000000E+00  0.00000000E+00  0.00000000E+00  0.00000000E+00
  0.00000000E+00  0.00000000E+00  0.00000000E+00  0.00000000E+00  0.00000000E+00
  0.00000000E+00  0.00000000E+00  0.00000000E+00  0.00000000E+00  0.00000000E+00
  0.00000000E+00  0.00000000E+00  0.00000000E+00  0.00000000E+00  0.00000000E+00
  0.00000000E+00  0.00000000E+00  0.00000000E+00  0.00000000E+00  0.00000000E+00
  0.00000000E+00  0.00000000E+00  0.00000000E+00  0.00000000E+00  0.00000000E+00
  0.00000000E+00  0.00000000E+00  0.00000000E+00  0.00000000E+00  0.00000000E+00
  0.00000000E+00  0.00000000E+00  0.00000000E+00  0.00000000E+00  0.00000000E+00
  0.00000000E+00  0.00000000E+00  0.00000000E+00  0.00000000E+00  0.00000000E+00
  0.00000000E+00  0.00000000E+00  0.00000000E+00  0.00000000E+00  0.00000000E+00
  0.00000000E+00  0.00000000E+00  0.00000000E+00  0.00000000E+00  0.00000000E+00
  0.00000000E+00  0.00000000E+00  0.00000000E+00  0.00000000E+00  0.00000000E+00
  0.00000000E+00  0.00000000E+00  0.00000000E+00  0.00000000E+00  0.00000000E+00
  0.00000000E+00  0.00000000E+00  0.00000000E+00  0.00000000E+00  0.00000000E+00
  0.00000000E+00  0.00000000E+00  0.00000000E+00  0.00000000E+00  0.00000000E+00
  0.00000000E+00  0.00000000E+00  0.00000000E+00  0.00000000E+00  0.00000000E+00
  0.00000000E+00  0.00000000E+00  0.00000000E+00  0.00000000E+00  0.00000000E+00