atomref-proatoms P_q0_mult4_nist x2c-QZVPall
GAUSSIAN             15 MOL ORBITALS    124 PRIMITIVES        1 NUCLEI
  P    1    (CENTRE  1)   0.00000000  0.00000000  0.00000000  CHARGE = 15.0
CENTRE ASSIGNMENTS    1  1  1  1  1  1  1  1  1  1  1  1  1  1  1  1  1  1  1  1
CENTRE ASSIGNMENTS    1  1  1  1  1  1  1  1  1  1  1  1  1  1  1  1  1  1  1  1
CENTRE ASSIGNMENTS    1  1  1  1  1  1  1  1  1  1  1  1  1  1  1  1  1  1  1  1
CENTRE ASSIGNMENTS    1  1  1  1  1  1  1  1  1  1  1  1  1  1  1  1  1  1  1  1
CENTRE ASSIGNMENTS    1  1  1  1  1  1  1  1  1  1  1  1  1  1  1  1  1  1  1  1
CENTRE ASSIGNMENTS    1  1  1  1  1  1  1  1  1  1  1  1  1  1  1  1  1  1  1  1
CENTRE ASSIGNMENTS    1  1  1  1
TYPE ASSIGNMENTS      1  1  1  1  1  1  1  1  1  1  1  1  1  1  1  1  1  1  1  1
TYPE ASSIGNMENTS      2  3  4  2  3  4  2  3  4  2  3  4  2  3  4  2  3  4  2  3
TYPE ASSIGNMENTS      4  2  3  4  2  3  4  2  3  4  2  3  4  2  3  4  2  3  4  2
TYPE ASSIGNMENTS      3  4  2  3  4  5  8  9  6 10  7  5  8  9  6 10  7  5  8  9
TYPE ASSIGNMENTS      6 10  7  5  8  9  6 10  7 11 14 15 17 20 18 12 16 19 13 11
TYPE ASSIGNMENTS     14 15 17 20 18 12 16 19 13 21 24 25 30 33 31 26 34 35 28 22
TYPE ASSIGNMENTS     27 32 29 23
EXPONENTS  1.1167183E+06 1.6344022E+05 3.7200110E+04 1.0525951E+04 3.4344372E+03
EXPONENTS  1.2399529E+03 4.8360307E+02 2.0030611E+02 8.6989181E+01 3.9260721E+01
EXPONENTS  3.3695952E+02 1.0364710E+02 3.9753428E+01 1.7903432E+01 6.9677834E+00
EXPONENTS  3.2184558E+00 1.4678431E+00 4.7798473E-01 2.1623057E-01 9.0279803E-02
EXPONENTS  3.1773749E+03 3.1773749E+03 3.1773749E+03 1.0704928E+03 1.0704928E+03
EXPONENTS  1.0704928E+03 3.8013656E+02 3.8013656E+02 3.8013656E+02 1.4227747E+02
EXPONENTS  1.4227747E+02 1.4227747E+02 5.6127185E+01 5.6127185E+01 5.6127185E+01
EXPONENTS  2.3337320E+01 2.3337320E+01 2.3337320E+01 1.0227496E+01 1.0227496E+01
EXPONENTS  1.0227496E+01 4.7242000E+00 4.7242000E+00 4.7242000E+00 2.2980800E+00
EXPONENTS  2.2980800E+00 2.2980800E+00 5.9376906E+01 5.9376906E+01 5.9376906E+01
EXPONENTS  3.0694161E+00 3.0694161E+00 3.0694161E+00 1.0636213E+00 1.0636213E+00
EXPONENTS  1.0636213E+00 4.5025118E-01 4.5025118E-01 4.5025118E-01 1.8267879E-01
EXPONENTS  1.8267879E-01 1.8267879E-01 7.1597872E-02 7.1597872E-02 7.1597872E-02
EXPONENTS  3.3430000E+00 3.3430000E+00 3.3430000E+00 3.3430000E+00 3.3430000E+00
EXPONENTS  3.3430000E+00 8.0700000E-01 8.0700000E-01 8.0700000E-01 8.0700000E-01
EXPONENTS  8.0700000E-01 8.0700000E-01 3.6500000E-01 3.6500000E-01 3.6500000E-01
EXPONENTS  3.6500000E-01 3.6500000E-01 3.6500000E-01 1.5400000E-01 1.5400000E-01
EXPONENTS  1.5400000E-01 1.5400000E-01 1.5400000E-01 1.5400000E-01 7.0300000E-01
EXPONENTS  7.0300000E-01 7.0300000E-01 7.0300000E-01 7.0300000E-01 7.0300000E-01
EXPONENTS  7.0300000E-01 7.0300000E-01 7.0300000E-01 7.0300000E-01 2.8000000E-01
EXPONENTS  2.8000000E-01 2.8000000E-01 2.8000000E-01 2.8000000E-01 2.8000000E-01
EXPONENTS  2.8000000E-01 2.8000000E-01 2.8000000E-01 2.8000000E-01 5.9700000E-01
EXPONENTS  5.9700000E-01 5.9700000E-01 5.9700000E-01 5.9700000E-01 5.9700000E-01
EXPONENTS  5.9700000E-01 5.9700000E-01 5.9700000E-01 5.9700000E-01 5.9700000E-01
EXPONENTS  5.9700000E-01 5.9700000E-01 5.9700000E-01 5.9700000E-01
MO    1                     OCC NO =   1.00000000 ORB. ENERGY = -77.45926718
  1.75209301E+00  1.43604083E+00  1.61013177E+00  2.02608144E+00  2.74055407E+00
  3.79051006E+00  5.06207494E+00  6.13131895E+00  6.04648951E+00  4.04747815E+00
 -9.77834038E-03 -3.50974046E-02 -6.28373135E-02  1.31301305E+00  7.77082458E-02
 -5.57349726E-03  1.12756011E-03 -1.72265912E-04  5.03660527E-05 -7.35866710E-06
  0.00000000E+00  0.00000000E+00  0.00000000E+00  0.00000000E+00  0.00000000E+00
  0.00000000E+00  0.00000000E+00  0.00000000E+00  0.00000000E+00  0.00000000E+00
  0.00000000E+00  0.00000000E+00  0.00000000E+00  0.00000000E+00  0.00000000E+00
  0.00000000E+00  0.00000000E+00  0.00000000E+00  0.00000000E+00  0.00000000E+00
  0.00000000E+00  0.00000000E+00  0.00000000E+00  0.00000000E+00  0.00000000E+00
  0.00000000E+00  0.00000000E+00  0.00000000E+00  0.00000000E+00  0.00000000E+00
  0.00000000E+00  0.00000000E+00  0.00000000E+00  0.00000000E+00  0.00000000E+00
  0.00000000E+00  0.00000000E+00  0.00000000E+00  0.00000000E+00  0.00000000E+00
  0.00000000E+00  0.00000000E+00  0.00000000E+00  0.00000000E+00  0.00000000E+00
  0.00000000E+00  0.00000000E+00  0.00000000E+00  0.00000000E+00  0.00000000E+00
  0.00000000E+00  0.00000000E+00  0.00000000E+00  0.00000000E+00  0.00000000E+00
  0.00000000E+00  0.00000000E+00  0.00000000E+00  0.00000000E+00  0.00000000E+00
  0.00000000E+00  0.00000000E+00  0.00000000E+00  0.00000000E+00  0.00000000E+00
  0.00000000E+00  0.00000000E+00  0.00000000E+00  0.00000000E+00  0.00000000E+00
  0.00000000E+00  0.00000000E+00  0.00000000E+00  0.00000000E+00  0.00000000E+00
  0.00000000E+00  0.00000000E+00  0.00000000E+00  0.00000000E+00  0.00000000E+00
  0.00000000E+00  0.00000000E+00  0.00000000E+00  0.00000000E+00  0.00000000E+00
  0.00000000E+00  0.00000000E+00  0.00000000E+00  0.00000000E+00  0.00000000E+00
  0.00000000E+00  0.00000000E+00  0.00000000E+00  0.00000000E+00  0.00000000E+00
  0.00000000E+00  0.00000000E+00  0.00000000E+00  0.00000000E+00  0.00000000E+00
  0.00000000E+00  0.00000000E+00  0.00000000E+00  0.00000000E+00
MO    2                     OCC NO =   1.00000000 ORB. ENERGY =  -6.68225891
 -4.85387327E-01 -3.97830488E-01 -4.46059398E-01 -5.61291123E-01 -7.59223515E-01
 -1.05009582E+00 -1.40236107E+00 -1.69857679E+00 -1.67507624E+00 -1.12128442E+00
 -1.26044247E-01 -4.52410714E-01 -8.09982225E-01 -7.82418520E-01  6.52416921E-01
  9.44568065E-01  3.46577140E-01  1.69021116E-02 -2.53930762E-03  3.33890642E-04
  0.00000000E+00  0.00000000E+00  0.00000000E+00  0.00000000E+00  0.00000000E+00
  0.00000000E+00  0.00000000E+00  0.00000000E+00  0.00000000E+00  0.00000000E+00
  0.00000000E+00  0.00000000E+00  0.00000000E+00  0.00000000E+00  0.00000000E+00
  0.00000000E+00  0.00000000E+00  0.00000000E+00  0.00000000E+00  0.00000000E+00
  0.00000000E+00  0.00000000E+00  0.00000000E+00  0.00000000E+00  0.00000000E+00
  0.00000000E+00  0.00000000E+00  0.00000000E+00  0.00000000E+00  0.00000000E+00
  0.00000000E+00  0.00000000E+00  0.00000000E+00  0.00000000E+00  0.00000000E+00
  0.00000000E+00  0.00000000E+00  0.00000000E+00  0.00000000E+00  0.00000000E+00
  0.00000000E+00  0.00000000E+00  0.00000000E+00  0.00000000E+00  0.00000000E+00
  0.00000000E+00  0.00000000E+00  0.00000000E+00  0.00000000E+00  0.00000000E+00
  0.00000000E+00  0.00000000E+00  0.00000000E+00  0.00000000E+00  0.00000000E+00
  0.00000000E+00  0.00000000E+00  0.00000000E+00  0.00000000E+00  0.00000000E+00
  0.00000000E+00  0.00000000E+00  0.00000000E+00  0.00000000E+00  0.00000000E+00
  0.00000000E+00  0.00000000E+00  0.00000000E+00  0.00000000E+00  0.00000000E+00
  0.00000000E+00  0.00000000E+00  0.00000000E+00  0.00000000E+00  0.00000000E+00
  0.00000000E+00  0.00000000E+00  0.00000000E+00  0.00000000E+00  0.00000000E+00
  0.00000000E+00  0.00000000E+00  0.00000000E+00  0.00000000E+00  0.00000000E+00
  0.00000000E+00  0.00000000E+00  0.00000000E+00  0.00000000E+00  0.00000000E+00
  0.00000000E+00  0.00000000E+00  0.00000000E+00  0.00000000E+00  0.00000000E+00
  0.00000000E+00  0.00000000E+00  0.00000000E+00  0.00000000E+00  0.00000000E+00
  0.00000000E+00  0.00000000E+00  0.00000000E+00  0.00000000E+00
MO    3                     OCC NO =   1.00000000 ORB. ENERGY =  -0.62349673
  1.41322750E-01  1.15830174E-01  1.29872243E-01  1.63422489E-01  2.21051413E-01
  3.05740221E-01  4.08303866E-01  4.94548433E-01  4.87706142E-01  3.26467110E-01
  4.02036225E-02  1.44302893E-01  2.58355461E-01  2.61337845E-01 -2.58530800E-01
 -4.08582132E-01 -2.84580899E-01  1.22343445E-01  1.57058269E-01  2.56836933E-02
  0.00000000E+00  0.00000000E+00  0.00000000E+00  0.00000000E+00  0.00000000E+00
  0.00000000E+00  0.00000000E+00  0.00000000E+00  0.00000000E+00  0.00000000E+00
  0.00000000E+00  0.00000000E+00  0.00000000E+00  0.00000000E+00  0.00000000E+00
  0.00000000E+00  0.00000000E+00  0.00000000E+00  0.00000000E+00  0.00000000E+00
  0.00000000E+00  0.00000000E+00  0.00000000E+00  0.00000000E+00  0.00000000E+00
  0.00000000E+00  0.00000000E+00  0.00000000E+00  0.00000000E+00  0.00000000E+00
  0.00000000E+00  0.00000000E+00  0.00000000E+00  0.00000000E+00  0.00000000E+00
  0.00000000E+00  0.00000000E+00  0.00000000E+00  0.00000000E+00  0.00000000E+00
  0.00000000E+00  0.00000000E+00  0.00000000E+00  0.00000000E+00  0.00000000E+00
  0.00000000E+00  0.00000000E+00  0.00000000E+00  0.00000000E+00  0.00000000E+00
  0.00000000E+00  0.00000000E+00  0.00000000E+00  0.00000000E+00  0.00000000E+00
  0.00000000E+00  0.00000000E+00  0.00000000E+00  0.00000000E+00  0.00000000E+00
  0.00000000E+00  0.00000000E+00  0.00000000E+00  0.00000000E+00  0.00000000E+00
  0.00000000E+00  0.00000000E+00  0.00000000E+00  0.00000000E+00  0.00000000E+00
  0.00000000E+00  0.00000000E+00  0.00000000E+00  0.00000000E+00  0.00000000E+00
  0.00000000E+00  0.00000000E+00  0.00000000E+00  0.00000000E+00  0.00000000E+00
  0.00000000E+00  0.00000000E+00  0.00000000E+00  0.00000000E+00  0.00000000E+00
  0.00000000E+00  0.00000000E+00  0.00000000E+00  0.00000000E+00  0.00000000E+00
  0.00000000E+00  0.00000000E+00  0.00000000E+00  0.00000000E+00  0.00000000E+00
  0.00000000E+00  0.00000000E+00  0.00000000E+00  0.00000000E+00  0.00000000E+00
  0.00000000E+00  0.00000000E+00  0.00000000E+00  0.00000000E+00
MO    4                     OCC NO =   1.00000000 ORB. ENERGY =  -4.78512185
  0.00000000E+00  0.00000000E+00  0.00000000E+00  0.00000000E+00  0.00000000E+00
  0.00000000E+00  0.00000000E+00  0.00000000E+00  0.00000000E+00  0.00000000E+00
  0.00000000E+00  0.00000000E+00  0.00000000E+00  0.00000000E+00  0.00000000E+00
  0.00000000E+00  0.00000000E+00  0.00000000E+00  0.00000000E+00  0.00000000E+00
  3.85457728E+00  0.00000000E+00  0.00000000E+00  3.74809886E+00  0.00000000E+00
  0.00000000E+00  5.77347658E+00  0.00000000E+00  0.00000000E+00  7.70202864E+00
  0.00000000E+00  0.00000000E+00  8.98669434E+00  0.00000000E+00  0.00000000E+00
  9.37597247E+00  0.00000000E+00  0.00000000E+00  6.85903297E+00  0.00000000E+00
  0.00000000E+00  3.58136035E+00  0.00000000E+00  0.00000000E+00  1.29047114E+00
  0.00000000E+00  0.00000000E+00  4.85260321E-01  0.00000000E+00  0.00000000E+00
 -1.90400519E-01  0.00000000E+00  0.00000000E+00  1.77977723E-01  0.00000000E+00
  0.00000000E+00  5.46996416E-03  0.00000000E+00  0.00000000E+00 -1.25649512E-04
  0.00000000E+00  0.00000000E+00  1.23506351E-05  0.00000000E+00  0.00000000E+00
  0.00000000E+00  0.00000000E+00  0.00000000E+00  0.00000000E+00  0.00000000E+00
  0.00000000E+00  0.00000000E+00  0.00000000E+00  0.00000000E+00  0.00000000E+00
  0.00000000E+00  0.00000000E+00  0.00000000E+00  0.00000000E+00  0.00000000E+00
  0.00000000E+00  0.00000000E+00  0.00000000E+00  0.00000000E+00  0.00000000E+00
  0.00000000E+00  0.00000000E+00  0.00000000E+00  0.00000000E+00  0.00000000E+00
  0.00000000E+00  0.00000000E+00  0.00000000E+00  0.00000000E+00  0.00000000E+00
  0.00000000E+00  0.00000000E+00  0.00000000E+00  0.00000000E+00  0.00000000E+00
  0.00000000E+00  0.00000000E+00  0.00000000E+00  0.00000000E+00  0.00000000E+00
  0.00000000E+00  0.00000000E+00  0.00000000E+00  0.00000000E+00  0.00000000E+00
  0.00000000E+00  0.00000000E+00  0.00000000E+00  0.00000000E+00  0.00000000E+00
  0.00000000E+00  0.00000000E+00  0.00000000E+00  0.00000000E+00  0.00000000E+00
  0.00000000E+00  0.00000000E+00  0.00000000E+00  0.00000000E+00
MO    5                     OCC NO =   1.00000000 ORB. ENERGY =  -4.78512185
  0.00000000E+00  0.00000000E+00  0.00000000E+00  0.00000000E+00  0.00000000E+00
  0.00000000E+00  0.00000000E+00  0.00000000E+00  0.00000000E+00  0.00000000E+00
  0.00000000E+00  0.00000000E+00  0.00000000E+00  0.00000000E+00  0.00000000E+00
  0.00000000E+00  0.00000000E+00  0.00000000E+00  0.00000000E+00  0.00000000E+00
  0.00000000E+00  3.85457728E+00  0.00000000E+00  0.00000000E+00  3.74809886E+00
  0.00000000E+00  0.00000000E+00  5.77347658E+00  0.00000000E+00  0.00000000E+00
  7.70202864E+00  0.00000000E+00  0.00000000E+00  8.98669434E+00  0.00000000E+00
  0.00000000E+00  9.37597247E+00  0.00000000E+00  0.00000000E+00  6.85903297E+00
  0.00000000E+00  0.00000000E+00  3.58136035E+00  0.00000000E+00  0.00000000E+00
  1.29047114E+00  0.00000000E+00  0.00000000E+00  4.85260321E-01  0.00000000E+00
  0.00000000E+00 -1.90400519E-01  0.00000000E+00  0.00000000E+00  1.77977723E-01
  0.00000000E+00  0.00000000E+00  5.46996416E-03  0.00000000E+00  0.00000000E+00
 -1.25649512E-04  0.00000000E+00  0.00000000E+00  1.23506351E-05  0.00000000E+00
  0.00000000E+00  0.00000000E+00  0.00000000E+00  0.00000000E+00  0.00000000E+00
  0.00000000E+00  0.00000000E+00  0.00000000E+00  0.00000000E+00  0.00000000E+00
  0.00000000E+00  0.00000000E+00  0.00000000E+00  0.00000000E+00  0.00000000E+00
  0.00000000E+00  0.00000000E+00  0.00000000E+00  0.00000000E+00  0.00000000E+00
  0.00000000E+00  0.00000000E+00  0.00000000E+00  0.00000000E+00  0.00000000E+00
  0.00000000E+00  0.00000000E+00  0.00000000E+00  0.00000000E+00  0.00000000E+00
  0.00000000E+00  0.00000000E+00  0.00000000E+00  0.00000000E+00  0.00000000E+00
  0.00000000E+00  0.00000000E+00  0.00000000E+00  0.00000000E+00  0.00000000E+00
  0.00000000E+00  0.00000000E+00  0.00000000E+00  0.00000000E+00  0.00000000E+00
  0.00000000E+00  0.00000000E+00  0.00000000E+00  0.00000000E+00  0.00000000E+00
  0.00000000E+00  0.00000000E+00  0.00000000E+00  0.00000000E+00  0.00000000E+00
  0.00000000E+00  0.00000000E+00  0.00000000E+00  0.00000000E+00
MO    6                     OCC NO =   1.00000000 ORB. ENERGY =  -4.78512185
  0.00000000E+00  0.00000000E+00  0.00000000E+00  0.00000000E+00  0.00000000E+00
  0.00000000E+00  0.00000000E+00  0.00000000E+00  0.00000000E+00  0.00000000E+00
  0.00000000E+00  0.00000000E+00  0.00000000E+00  0.00000000E+00  0.00000000E+00
  0.00000000E+00  0.00000000E+00  0.00000000E+00  0.00000000E+00  0.00000000E+00
  0.00000000E+00  0.00000000E+00  3.85457728E+00  0.00000000E+00  0.00000000E+00
  3.74809886E+00  0.00000000E+00  0.00000000E+00  5.77347658E+00  0.00000000E+00
  0.00000000E+00  7.70202864E+00  0.00000000E+00  0.00000000E+00  8.98669434E+00
  0.00000000E+00  0.00000000E+00  9.37597247E+00  0.00000000E+00  0.00000000E+00
  6.85903297E+00  0.00000000E+00  0.00000000E+00  3.58136035E+00  0.00000000E+00
  0.00000000E+00  1.29047114E+00  0.00000000E+00  0.00000000E+00  4.85260321E-01
  0.00000000E+00  0.00000000E+00 -1.90400519E-01  0.00000000E+00  0.00000000E+00
  1.77977723E-01  0.00000000E+00  0.00000000E+00  5.46996416E-03  0.00000000E+00
  0.00000000E+00 -1.25649512E-04  0.00000000E+00  0.00000000E+00  1.23506351E-05
  0.00000000E+00  0.00000000E+00  0.00000000E+00  0.00000000E+00  0.00000000E+00
  0.00000000E+00  0.00000000E+00  0.00000000E+00  0.00000000E+00  0.00000000E+00
  0.00000000E+00  0.00000000E+00  0.00000000E+00  0.00000000E+00  0.00000000E+00
  0.00000000E+00  0.00000000E+00  0.00000000E+00  0.00000000E+00  0.00000000E+00
  0.00000000E+00  0.00000000E+00  0.00000000E+00  0.00000000E+00  0.00000000E+00
  0.00000000E+00  0.00000000E+00  0.00000000E+00  0.00000000E+00  0.00000000E+00
  0.00000000E+00  0.00000000E+00  0.00000000E+00  0.00000000E+00  0.00000000E+00
  0.00000000E+00  0.00000000E+00  0.00000000E+00  0.00000000E+00  0.00000000E+00
  0.00000000E+00  0.00000000E+00  0.00000000E+00  0.00000000E+00  0.00000000E+00
  0.00000000E+00  0.00000000E+00  0.00000000E+00  0.00000000E+00  0.00000000E+00
  0.00000000E+00  0.00000000E+00  0.00000000E+00  0.00000000E+00  0.00000000E+00
  0.00000000E+00  0.00000000E+00  0.00000000E+00  0.00000000E+00
MO    7                     OCC NO =   1.00000000 ORB. ENERGY =  -0.27607872
  0.00000000E+00  0.00000000E+00  0.00000000E+00  0.00000000E+00  0.00000000E+00
  0.00000000E+00  0.00000000E+00  0.00000000E+00  0.00000000E+00  0.00000000E+00
  0.00000000E+00  0.00000000E+00  0.00000000E+00  0.00000000E+00  0.00000000E+00
  0.00000000E+00  0.00000000E+00  0.00000000E+00  0.00000000E+00  0.00000000E+00
 -1.01878643E+00  0.00000000E+00  0.00000000E+00 -9.90643582E-01  0.00000000E+00
  0.00000000E+00 -1.52596229E+00  0.00000000E+00  0.00000000E+00 -2.03568943E+00
  0.00000000E+00  0.00000000E+00 -2.37523380E+00  0.00000000E+00  0.00000000E+00
 -2.47812219E+00  0.00000000E+00  0.00000000E+00 -1.81288094E+00  0.00000000E+00
  0.00000000E+00 -9.46573657E-01  0.00000000E+00  0.00000000E+00 -3.41078772E-01
  0.00000000E+00  0.00000000E+00 -1.73277492E-02  0.00000000E+00  0.00000000E+00
  6.79885062E-03  0.00000000E+00  0.00000000E+00  5.77247036E-02  0.00000000E+00
  0.00000000E+00  1.94870197E-01  0.00000000E+00  0.00000000E+00  8.62599137E-02
  0.00000000E+00  0.00000000E+00  1.22572856E-02  0.00000000E+00  0.00000000E+00
  0.00000000E+00  0.00000000E+00  0.00000000E+00  0.00000000E+00  0.00000000E+00
  0.00000000E+00  0.00000000E+00  0.00000000E+00  0.00000000E+00  0.00000000E+00
  0.00000000E+00  0.00000000E+00  0.00000000E+00  0.00000000E+00  0.00000000E+00
  0.00000000E+00  0.00000000E+00  0.00000000E+00  0.00000000E+00  0.00000000E+00
  0.00000000E+00  0.00000000E+00  0.00000000E+00  0.00000000E+00  0.00000000E+00
  0.00000000E+00  0.00000000E+00  0.00000000E+00  0.00000000E+00  0.00000000E+00
  0.00000000E+00  0.00000000E+00  0.00000000E+00  0.00000000E+00  0.00000000E+00
  0.00000000E+00  0.00000000E+00  0.00000000E+00  0.00000000E+00  0.00000000E+00
  0.00000000E+00  0.00000000E+00  0.00000000E+00  0.00000000E+00  0.00000000E+00
  0.00000000E+00  0.00000000E+00  0.00000000E+00  0.00000000E+00  0.00000000E+00
  0.00000000E+00  0.00000000E+00  0.00000000E+00  0.00000000E+00  0.00000000E+00
  0.00000000E+00  0.00000000E+00  0.00000000E+00  0.00000000E+00
MO    8                     OCC NO =   1.00000000 ORB. ENERGY =  -0.27607872
  0.00000000E+00  0.00000000E+00  0.00000000E+00  0.00000000E+00  0.00000000E+00
  0.00000000E+00  0.00000000E+00  0.00000000E+00  0.00000000E+00  0.00000000E+00
  0.00000000E+00  0.00000000E+00  0.00000000E+00  0.00000000E+00  0.00000000E+00
  0.00000000E+00  0.00000000E+00  0.00000000E+00  0.00000000E+00  0.00000000E+00
  0.00000000E+00 -1.01878643E+00  0.00000000E+00  0.00000000E+00 -9.90643582E-01
  0.00000000E+00  0.00000000E+00 -1.52596229E+00  0.00000000E+00  0.00000000E+00
 -2.03568943E+00  0.00000000E+00  0.00000000E+00 -2.37523380E+00  0.00000000E+00
  0.00000000E+00 -2.47812219E+00  0.00000000E+00  0.00000000E+00 -1.81288094E+00
  0.00000000E+00  0.00000000E+00 -9.46573657E-01  0.00000000E+00  0.00000000E+00
 -3.41078772E-01  0.00000000E+00  0.00000000E+00 -1.73277492E-02  0.00000000E+00
  0.00000000E+00  6.79885062E-03  0.00000000E+00  0.00000000E+00  5.77247036E-02
  0.00000000E+00  0.00000000E+00  1.94870197E-01  0.00000000E+00  0.00000000E+00
  8.62599137E-02  0.00000000E+00  0.00000000E+00  1.22572856E-02  0.00000000E+00
  0.00000000E+00  0.00000000E+00  0.00000000E+00  0.00000000E+00  0.00000000E+00
  0.00000000E+00  0.00000000E+00  0.00000000E+00  0.00000000E+00  0.00000000E+00
  0.00000000E+00  0.00000000E+00  0.00000000E+00  0.00000000E+00  0.00000000E+00
  0.00000000E+00  0.00000000E+00  0.00000000E+00  0.00000000E+00  0.00000000E+00
  0.00000000E+00  0.00000000E+00  0.00000000E+00  0.00000000E+00  0.00000000E+00
  0.00000000E+00  0.00000000E+00  0.00000000E+00  0.00000000E+00  0.00000000E+00
  0.00000000E+00  0.00000000E+00  0.00000000E+00  0.00000000E+00  0.00000000E+00
  0.00000000E+00  0.00000000E+00  0.00000000E+00  0.00000000E+00  0.00000000E+00
  0.00000000E+00  0.00000000E+00  0.00000000E+00  0.00000000E+00  0.00000000E+00
  0.00000000E+00  0.00000000E+00  0.00000000E+00  0.00000000E+00  0.00000000E+00
  0.00000000E+00  0.00000000E+00  0.00000000E+00  0.00000000E+00  0.00000000E+00
  0.00000000E+00  0.00000000E+00  0.00000000E+00  0.00000000E+00
MO    9                     OCC NO =   1.00000000 ORB. ENERGY =  -0.27607872
  0.00000000E+00  0.00000000E+00  0.00000000E+00  0.00000000E+00  0.00000000E+00
  0.00000000E+00  0.00000000E+00  0.00000000E+00  0.00000000E+00  0.00000000E+00
  0.00000000E+00  0.00000000E+00  0.00000000E+00  0.00000000E+00  0.00000000E+00
  0.00000000E+00  0.00000000E+00  0.00000000E+00  0.00000000E+00  0.00000000E+00
  0.00000000E+00  0.00000000E+00 -1.01878643E+00  0.00000000E+00  0.00000000E+00
 -9.90643582E-01  0.00000000E+00  0.00000000E+00 -1.52596229E+00  0.00000000E+00
  0.00000000E+00 -2.03568943E+00  0.00000000E+00  0.00000000E+00 -2.37523380E+00
  0.00000000E+00  0.00000000E+00 -2.47812219E+00  0.00000000E+00  0.00000000E+00
 -1.81288094E+00  0.00000000E+00  0.00000000E+00 -9.46573657E-01  0.00000000E+00
  0.00000000E+00 -3.41078772E-01  0.00000000E+00  0.00000000E+00 -1.73277492E-02
  0.00000000E+00  0.00000000E+00  6.79885062E-03  0.00000000E+00  0.00000000E+00
  5.77247036E-02  0.00000000E+00  0.00000000E+00  1.94870197E-01  0.00000000E+00
  0.00000000E+00  8.62599137E-02  0.00000000E+00  0.00000000E+00  1.22572856E-02
  0.00000000E+00  0.00000000E+00  0.00000000E+00  0.00000000E+00  0.00000000E+00
  0.00000000E+00  0.00000000E+00  0.00000000E+00  0.00000000E+00  0.00000000E+00
  0.00000000E+00  0.00000000E+00  0.00000000E+00  0.00000000E+00  0.00000000E+00
  0.00000000E+00  0.00000000E+00  0.00000000E+00  0.00000000E+00  0.00000000E+00
  0.00000000E+00  0.00000000E+00  0.00000000E+00  0.00000000E+00  0.00000000E+00
  0.00000000E+00  0.00000000E+00  0.00000000E+00  0.00000000E+00  0.00000000E+00
  0.00000000E+00  0.00000000E+00  0.00000000E+00  0.00000000E+00  0.00000000E+00
  0.00000000E+00  0.00000000E+00  0.00000000E+00  0.00000000E+00  0.00000000E+00
  0.00000000E+00  0.00000000E+00  0.00000000E+00  0.00000000E+00  0.00000000E+00
  0.00000000E+00  0.00000000E+00  0.00000000E+00  0.00000000E+00  0.00000000E+00
  0.00000000E+00  0.00000000E+00  0.00000000E+00  0.00000000E+00  0.00000000E+00
  0.00000000E+00  0.00000000E+00  0.00000000E+00  0.00000000E+00
MO   11                    OCC NO =   1.00000000 ORB. ENERGY = -77.44563989
  1.75231424E+00  1.43622215E+00  1.61033507E+00  2.02633726E+00  2.74090010E+00
  3.79098867E+00  5.06271410E+00  6.13209311E+00  6.04725297E+00  4.04798920E+00
 -9.67412977E-03 -3.47233614E-02 -6.21676380E-02  1.31173420E+00  7.77532703E-02
 -5.67952215E-03  1.16260665E-03 -1.72375474E-04  5.28871066E-05 -7.46185492E-06
  0.00000000E+00  0.00000000E+00  0.00000000E+00  0.00000000E+00  0.00000000E+00
  0.00000000E+00  0.00000000E+00  0.00000000E+00  0.00000000E+00  0.00000000E+00
  0.00000000E+00  0.00000000E+00  0.00000000E+00  0.00000000E+00  0.00000000E+00
  0.00000000E+00  0.00000000E+00  0.00000000E+00  0.00000000E+00  0.00000000E+00
  0.00000000E+00  0.00000000E+00  0.00000000E+00  0.00000000E+00  0.00000000E+00
  0.00000000E+00  0.00000000E+00  0.00000000E+00  0.00000000E+00  0.00000000E+00
  0.00000000E+00  0.00000000E+00  0.00000000E+00  0.00000000E+00  0.00000000E+00
  0.00000000E+00  0.00000000E+00  0.00000000E+00  0.00000000E+00  0.00000000E+00
  0.00000000E+00  0.00000000E+00  0.00000000E+00  0.00000000E+00  0.00000000E+00
  0.00000000E+00  0.00000000E+00  0.00000000E+00  0.00000000E+00  0.00000000E+00
  0.00000000E+00  0.00000000E+00  0.00000000E+00  0.00000000E+00  0.00000000E+00
  0.00000000E+00  0.00000000E+00  0.00000000E+00  0.00000000E+00  0.00000000E+00
  0.00000000E+00  0.00000000E+00  0.00000000E+00  0.00000000E+00  0.00000000E+00
  0.00000000E+00  0.00000000E+00  0.00000000E+00  0.00000000E+00  0.00000000E+00
  0.00000000E+00  0.00000000E+00  0.00000000E+00  0.00000000E+00  0.00000000E+00
  0.00000000E+00  0.00000000E+00  0.00000000E+00  0.00000000E+00  0.00000000E+00
  0.00000000E+00  0.00000000E+00  0.00000000E+00  0.00000000E+00  0.00000000E+00
  0.00000000E+00  0.00000000E+00  0.00000000E+00  0.00000000E+00  0.00000000E+00
  0.00000000E+00  0.00000000E+00  0.00000000E+00  0.00000000E+00  0.00000000E+00
  0.00000000E+00  0.00000000E+00  0.00000000E+00  0.00000000E+00  0.00000000E+00
  0.00000000E+00  0.00000000E+00  0.00000000E+00  0.00000000E+00
MO   12                    OCC NO =   1.00000000 ORB. ENERGY =  -6.66871304
 -4.85046750E-01 -3.97551346E-01 -4.45746416E-01 -5.60897287E-01 -7.58690797E-01
 -1.04935901E+00 -1.40137709E+00 -1.69738496E+00 -1.67390091E+00 -1.12049766E+00
 -1.25787806E-01 -4.51490270E-01 -8.08334290E-01 -7.81949511E-01  6.49263910E-01
  9.43578871E-01  3.49995604E-01  1.54866744E-02 -2.39222876E-03  2.90719037E-04
  0.00000000E+00  0.00000000E+00  0.00000000E+00  0.00000000E+00  0.00000000E+00
  0.00000000E+00  0.00000000E+00  0.00000000E+00  0.00000000E+00  0.00000000E+00
  0.00000000E+00  0.00000000E+00  0.00000000E+00  0.00000000E+00  0.00000000E+00
  0.00000000E+00  0.00000000E+00  0.00000000E+00  0.00000000E+00  0.00000000E+00
  0.00000000E+00  0.00000000E+00  0.00000000E+00  0.00000000E+00  0.00000000E+00
  0.00000000E+00  0.00000000E+00  0.00000000E+00  0.00000000E+00  0.00000000E+00
  0.00000000E+00  0.00000000E+00  0.00000000E+00  0.00000000E+00  0.00000000E+00
  0.00000000E+00  0.00000000E+00  0.00000000E+00  0.00000000E+00  0.00000000E+00
  0.00000000E+00  0.00000000E+00  0.00000000E+00  0.00000000E+00  0.00000000E+00
  0.00000000E+00  0.00000000E+00  0.00000000E+00  0.00000000E+00  0.00000000E+00
  0.00000000E+00  0.00000000E+00  0.00000000E+00  0.00000000E+00  0.00000000E+00
  0.00000000E+00  0.00000000E+00  0.00000000E+00  0.00000000E+00  0.00000000E+00
  0.00000000E+00  0.00000000E+00  0.00000000E+00  0.00000000E+00  0.00000000E+00
  0.00000000E+00  0.00000000E+00  0.00000000E+00  0.00000000E+00  0.00000000E+00
  0.00000000E+00  0.00000000E+00  0.00000000E+00  0.00000000E+00  0.00000000E+00
  0.00000000E+00  0.00000000E+00  0.00000000E+00  0.00000000E+00  0.00000000E+00
  0.00000000E+00  0.00000000E+00  0.00000000E+00  0.00000000E+00  0.00000000E+00
  0.00000000E+00  0.00000000E+00  0.00000000E+00  0.00000000E+00  0.00000000E+00
  0.00000000E+00  0.00000000E+00  0.00000000E+00  0.00000000E+00  0.00000000E+00
  0.00000000E+00  0.00000000E+00  0.00000000E+00  0.00000000E+00  0.00000000E+00
  0.00000000E+00  0.00000000E+00  0.00000000E+00  0.00000000E+00
MO   13                    OCC NO =   1.00000000 ORB. ENERGY =  -0.48525363
  1.42674695E-01  1.16938248E-01  1.31114648E-01  1.64985848E-01  2.23166072E-01
  3.08665044E-01  4.12209850E-01  4.99279464E-01  4.92371718E-01  3.29590214E-01
  4.12743988E-02  1.48146231E-01  2.65236455E-01  2.55616007E-01 -2.42411665E-01
 -4.48493998E-01 -2.65061401E-01  1.35590826E-01  1.39878485E-01  3.13715330E-02
  0.00000000E+00  0.00000000E+00  0.00000000E+00  0.00000000E+00  0.00000000E+00
  0.00000000E+00  0.00000000E+00  0.00000000E+00  0.00000000E+00  0.00000000E+00
  0.00000000E+00  0.00000000E+00  0.00000000E+00  0.00000000E+00  0.00000000E+00
  0.00000000E+00  0.00000000E+00  0.00000000E+00  0.00000000E+00  0.00000000E+00
  0.00000000E+00  0.00000000E+00  0.00000000E+00  0.00000000E+00  0.00000000E+00
  0.00000000E+00  0.00000000E+00  0.00000000E+00  0.00000000E+00  0.00000000E+00
  0.00000000E+00  0.00000000E+00  0.00000000E+00  0.00000000E+00  0.00000000E+00
  0.00000000E+00  0.00000000E+00  0.00000000E+00  0.00000000E+00  0.00000000E+00
  0.00000000E+00  0.00000000E+00  0.00000000E+00  0.00000000E+00  0.00000000E+00
  0.00000000E+00  0.00000000E+00  0.00000000E+00  0.00000000E+00  0.00000000E+00
  0.00000000E+00  0.00000000E+00  0.00000000E+00  0.00000000E+00  0.00000000E+00
  0.00000000E+00  0.00000000E+00  0.00000000E+00  0.00000000E+00  0.00000000E+00
  0.00000000E+00  0.00000000E+00  0.00000000E+00  0.00000000E+00  0.00000000E+00
  0.00000000E+00  0.00000000E+00  0.00000000E+00  0.00000000E+00  0.00000000E+00
  0.00000000E+00  0.00000000E+00  0.00000000E+00  0.00000000E+00  0.00000000E+00
  0.00000000E+00  0.00000000E+00  0.00000000E+00  0.00000000E+00  0.00000000E+00
  0.00000000E+00  0.00000000E+00  0.00000000E+00  0.00000000E+00  0.00000000E+00
  0.00000000E+00  0.00000000E+00  0.00000000E+00  0.00000000E+00  0.00000000E+00
  0.00000000E+00  0.00000000E+00  0.00000000E+00  0.00000000E+00  0.00000000E+00
  0.00000000E+00  0.00000000E+00  0.00000000E+00  0.00000000E+00  0.00000000E+00
  0.00000000E+00  0.00000000E+00  0.00000000E+00  0.00000000E+00
MO   14                    OCC NO =   1.00000000 ORB. ENERGY =  -4.76366834
  0.00000000E+00  0.00000000E+00  0.00000000E+00  0.00000000E+00  0.00000000E+00
  0.00000000E+00  0.00000000E+00  0.00000000E+00  0.00000000E+00  0.00000000E+00
  0.00000000E+00  0.00000000E+00  0.00000000E+00  0.00000000E+00  0.00000000E+00
  0.00000000E+00  0.00000000E+00  0.00000000E+00  0.00000000E+00  0.00000000E+00
  3.84597692E+00  0.00000000E+00  0.00000000E+00  3.73973608E+00  0.00000000E+00
  0.00000000E+00  5.76059477E+00  0.00000000E+00  0.00000000E+00  7.68484383E+00
  0.00000000E+00  0.00000000E+00  8.96664318E+00  0.00000000E+00  0.00000000E+00
  9.35505274E+00  0.00000000E+00  0.00000000E+00  6.84372905E+00  0.00000000E+00
  0.00000000E+00  3.57336959E+00  0.00000000E+00  0.00000000E+00  1.28759183E+00
  0.00000000E+00  0.00000000E+00  4.59526227E-01  0.00000000E+00  0.00000000E+00
 -1.80303289E-01  0.00000000E+00  0.00000000E+00  1.81604068E-01  0.00000000E+00
  0.00000000E+00  3.83389992E-03  0.00000000E+00  0.00000000E+00  6.71700148E-05
  0.00000000E+00  0.00000000E+00 -7.85132429E-06  0.00000000E+00  0.00000000E+00
  0.00000000E+00  0.00000000E+00  0.00000000E+00  0.00000000E+00  0.00000000E+00
  0.00000000E+00  0.00000000E+00  0.00000000E+00  0.00000000E+00  0.00000000E+00
  0.00000000E+00  0.00000000E+00  0.00000000E+00  0.00000000E+00  0.00000000E+00
  0.00000000E+00  0.00000000E+00  0.00000000E+00  0.00000000E+00  0.00000000E+00
  0.00000000E+00  0.00000000E+00  0.00000000E+00  0.00000000E+00  0.00000000E+00
  0.00000000E+00  0.00000000E+00  0.00000000E+00  0.00000000E+00  0.00000000E+00
  0.00000000E+00  0.00000000E+00  0.00000000E+00  0.00000000E+00  0.00000000E+00