atomref-proatoms Pb_q0_mult3_nist x2c-QZVPall
GAUSSIAN             83 MOL ORBITALS    387 PRIMITIVES        1 NUCLEI
  Pb   1    (CENTRE  1)   0.00000000  0.00000000  0.00000000  CHARGE = 82.0
CENTRE ASSIGNMENTS    1  1  1  1  1  1  1  1  1  1  1  1  1  1  1  1  1  1  1  1
CENTRE ASSIGNMENTS    1  1  1  1  1  1  1  1  1  1  1  1  1  1  1  1  1  1  1  1
CENTRE ASSIGNMENTS    1  1  1  1  1  1  1  1  1  1  1  1  1  1  1  1  1  1  1  1
CENTRE ASSIGNMENTS    1  1  1  1  1  1  1  1  1  1  1  1  1  1  1  1  1  1  1  1
CENTRE ASSIGNMENTS    1  1  1  1  1  1  1  1  1  1  1  1  1  1  1  1  1  1  1  1
CENTRE ASSIGNMENTS    1  1  1  1  1  1  1  1  1  1  1  1  1  1  1  1  1  1  1  1
CENTRE ASSIGNMENTS    1  1  1  1  1  1  1  1  1  1  1  1  1  1  1  1  1  1  1  1
CENTRE ASSIGNMENTS    1  1  1  1  1  1  1  1  1  1  1  1  1  1  1  1  1  1  1  1
CENTRE ASSIGNMENTS    1  1  1  1  1  1  1  1  1  1  1  1  1  1  1  1  1  1  1  1
CENTRE ASSIGNMENTS    1  1  1  1  1  1  1  1  1  1  1  1  1  1  1  1  1  1  1  1
CENTRE ASSIGNMENTS    1  1  1  1  1  1  1  1  1  1  1  1  1  1  1  1  1  1  1  1
CENTRE ASSIGNMENTS    1  1  1  1  1  1  1  1  1  1  1  1  1  1  1  1  1  1  1  1
CENTRE ASSIGNMENTS    1  1  1  1  1  1  1  1  1  1  1  1  1  1  1  1  1  1  1  1
CENTRE ASSIGNMENTS    1  1  1  1  1  1  1  1  1  1  1  1  1  1  1  1  1  1  1  1
CENTRE ASSIGNMENTS    1  1  1  1  1  1  1  1  1  1  1  1  1  1  1  1  1  1  1  1
CENTRE ASSIGNMENTS    1  1  1  1  1  1  1  1  1  1  1  1  1  1  1  1  1  1  1  1
CENTRE ASSIGNMENTS    1  1  1  1  1  1  1  1  1  1  1  1  1  1  1  1  1  1  1  1
CENTRE ASSIGNMENTS    1  1  1  1  1  1  1  1  1  1  1  1  1  1  1  1  1  1  1  1
CENTRE ASSIGNMENTS    1  1  1  1  1  1  1  1  1  1  1  1  1  1  1  1  1  1  1  1
CENTRE ASSIGNMENTS    1  1  1  1  1  1  1
TYPE ASSIGNMENTS      1  1  1  1  1  1  1  1  1  1  1  1  1  1  1  1  1  1  1  1
TYPE ASSIGNMENTS      1  1  1  1  1  1  1  1  1  1  2  3  4  2  3  4  2  3  4  2
TYPE ASSIGNMENTS      3  4  2  3  4  2  3  4  2  3  4  2  3  4  2  3  4  2  3  4
TYPE ASSIGNMENTS      2  3  4  2  3  4  2  3  4  2  3  4  2  3  4  2  3  4  2  3
TYPE ASSIGNMENTS      4  2  3  4  2  3  4  2  3  4  2  3  4  2  3  4  2  3  4  2
TYPE ASSIGNMENTS      3  4  2  3  4  2  3  4  2  3  4  2  3  4  2  3  4  2  3  4
TYPE ASSIGNMENTS      2  3  4  2  3  4  2  3  4  2  3  4  5  8  9  6 10  7  5  8
TYPE ASSIGNMENTS      9  6 10  7  5  8  9  6 10  7  5  8  9  6 10  7  5  8  9  6
TYPE ASSIGNMENTS     10  7  5  8  9  6 10  7  5  8  9  6 10  7  5  8  9  6 10  7
TYPE ASSIGNMENTS      5  8  9  6 10  7  5  8  9  6 10  7  5  8  9  6 10  7  5  8
TYPE ASSIGNMENTS      9  6 10  7  5  8  9  6 10  7  5  8  9  6 10  7  5  8  9  6
TYPE ASSIGNMENTS     10  7  5  8  9  6 10  7  5  8  9  6 10  7  5  8  9  6 10  7
TYPE ASSIGNMENTS      5  8  9  6 10  7  5  8  9  6 10  7 11 14 15 17 20 18 12 16
TYPE ASSIGNMENTS     19 13 11 14 15 17 20 18 12 16 19 13 11 14 15 17 20 18 12 16
TYPE ASSIGNMENTS     19 13 11 14 15 17 20 18 12 16 19 13 11 14 15 17 20 18 12 16
TYPE ASSIGNMENTS     19 13 11 14 15 17 20 18 12 16 19 13 11 14 15 17 20 18 12 16
TYPE ASSIGNMENTS     19 13 11 14 15 17 20 18 12 16 19 13 11 14 15 17 20 18 12 16
TYPE ASSIGNMENTS     19 13 11 14 15 17 20 18 12 16 19 13 11 14 15 17 20 18 12 16
TYPE ASSIGNMENTS     19 13 11 14 15 17 20 18 12 16 19 13 21 24 25 30 33 31 26 34
TYPE ASSIGNMENTS     35 28 22 27 32 29 23
EXPONENTS  6.7732801E+07 1.8596922E+07 5.6715827E+06 1.7714487E+06 5.9424539E+05
EXPONENTS  2.1051529E+05 7.8183603E+04 3.1541709E+04 1.3419005E+04 6.1493958E+03
EXPONENTS  2.9490104E+03 1.4410815E+03 7.4938377E+04 1.6152845E+04 4.7854585E+03
EXPONENTS  1.7309830E+03 6.8382698E+02 3.4927240E+02 1.7230088E+02 8.8933233E+01
EXPONENTS  4.5601741E+01 2.4245264E+01 1.1456898E+01 5.9864584E+00 2.3666639E+00
EXPONENTS  1.3078216E+00 5.8280571E-01 3.0957103E-01 1.3287049E-01 5.7196489E-02
EXPONENTS  3.2400000E+02 3.2400000E+02 3.2400000E+02 1.4289355E+07 1.4289355E+07
EXPONENTS  1.4289355E+07 2.7526889E+06 2.7526889E+06 2.7526889E+06 6.8767835E+05
EXPONENTS  6.8767835E+05 6.8767835E+05 1.9971172E+05 1.9971172E+05 1.9971172E+05
EXPONENTS  6.4954340E+04 6.4954340E+04 6.4954340E+04 2.2927877E+04 2.2927877E+04
EXPONENTS  2.2927877E+04 8.6049480E+03 8.6049480E+03 8.6049480E+03 3.4308115E+03
EXPONENTS  3.4308115E+03 3.4308115E+03 1.4312295E+03 1.4312295E+03 1.4312295E+03
EXPONENTS  6.3391790E+02 6.3391790E+02 6.3391790E+02 2.9919981E+02 2.9919981E+02
EXPONENTS  2.9919981E+02 1.4857051E+02 1.4857051E+02 1.4857051E+02 7.6112539E+01
EXPONENTS  7.6112539E+01 7.6112539E+01 2.3400210E+03 2.3400210E+03 2.3400210E+03
EXPONENTS  7.9455556E+02 7.9455556E+02 7.9455556E+02 3.5350169E+02 3.5350169E+02
EXPONENTS  3.5350169E+02 8.7917405E+01 8.7917405E+01 8.7917405E+01 4.5793748E+01
EXPONENTS  4.5793748E+01 4.5793748E+01 2.3443477E+01 2.3443477E+01 2.3443477E+01
EXPONENTS  1.0173129E+01 1.0173129E+01 1.0173129E+01 1.1899601E+02 1.1899601E+02
EXPONENTS  1.1899601E+02 4.8787261E+01 4.8787261E+01 4.8787261E+01 1.4203405E+01
EXPONENTS  1.4203405E+01 1.4203405E+01 7.6730310E+00 7.6730310E+00 7.6730310E+00
EXPONENTS  4.0039065E+00 4.0039065E+00 4.0039065E+00 7.7457227E+00 7.7457227E+00
EXPONENTS  7.7457227E+00 2.4345290E+00 2.4345290E+00 2.4345290E+00 1.2338626E+00
EXPONENTS  1.2338626E+00 1.2338626E+00 1.4471322E+00 1.4471322E+00 1.4471322E+00
EXPONENTS  4.8899026E-01 4.8899026E-01 4.8899026E-01 2.4372021E-01 2.4372021E-01
EXPONENTS  2.4372021E-01 9.2518362E-02 9.2518362E-02 9.2518362E-02 3.4703172E-02
EXPONENTS  3.4703172E-02 3.4703172E-02 7.5358681E+03 7.5358681E+03 7.5358681E+03
EXPONENTS  7.5358681E+03 7.5358681E+03 7.5358681E+03 2.2222299E+03 2.2222299E+03
EXPONENTS  2.2222299E+03 2.2222299E+03 2.2222299E+03 2.2222299E+03 8.7996509E+02
EXPONENTS  8.7996509E+02 8.7996509E+02 8.7996509E+02 8.7996509E+02 8.7996509E+02
EXPONENTS  3.9024672E+02 3.9024672E+02 3.9024672E+02 3.9024672E+02 3.9024672E+02
EXPONENTS  3.9024672E+02 1.8869104E+02 1.8869104E+02 1.8869104E+02 1.8869104E+02
EXPONENTS  1.8869104E+02 1.8869104E+02 9.5673025E+01 9.5673025E+01 9.5673025E+01
EXPONENTS  9.5673025E+01 9.5673025E+01 9.5673025E+01 4.9537835E+01 4.9537835E+01
EXPONENTS  4.9537835E+01 4.9537835E+01 4.9537835E+01 4.9537835E+01 2.5886622E+01
EXPONENTS  2.5886622E+01 2.5886622E+01 2.5886622E+01 2.5886622E+01 2.5886622E+01
EXPONENTS  5.0400000E+01 5.0400000E+01 5.0400000E+01 5.0400000E+01 5.0400000E+01
EXPONENTS  5.0400000E+01 4.6844013E+02 4.6844013E+02 4.6844013E+02 4.6844013E+02
EXPONENTS  4.6844013E+02 4.6844013E+02 1.6530833E+02 1.6530833E+02 1.6530833E+02
EXPONENTS  1.6530833E+02 1.6530833E+02 1.6530833E+02 3.0415016E+01 3.0415016E+01
EXPONENTS  3.0415016E+01 3.0415016E+01 3.0415016E+01 3.0415016E+01 1.3257043E+01
EXPONENTS  1.3257043E+01 1.3257043E+01 1.3257043E+01 1.3257043E+01 1.3257043E+01
EXPONENTS  1.8813359E+01 1.8813359E+01 1.8813359E+01 1.8813359E+01 1.8813359E+01
EXPONENTS  1.8813359E+01 6.9412913E+00 6.9412913E+00 6.9412913E+00 6.9412913E+00
EXPONENTS  6.9412913E+00 6.9412913E+00 3.4309372E+00 3.4309372E+00 3.4309372E+00
EXPONENTS  3.4309372E+00 3.4309372E+00 3.4309372E+00 1.6755196E+00 1.6755196E+00
EXPONENTS  1.6755196E+00 1.6755196E+00 1.6755196E+00 1.6755196E+00 7.6836561E-01
EXPONENTS  7.6836561E-01 7.6836561E-01 7.6836561E-01 7.6836561E-01 7.6836561E-01
EXPONENTS  3.2853685E-01 3.2853685E-01 3.2853685E-01 3.2853685E-01 3.2853685E-01
EXPONENTS  3.2853685E-01 1.1358416E-01 1.1358416E-01 1.1358416E-01 1.1358416E-01
EXPONENTS  1.1358416E-01 1.1358416E-01 5.9008000E+02 5.9008000E+02 5.9008000E+02
EXPONENTS  5.9008000E+02 5.9008000E+02 5.9008000E+02 5.9008000E+02 5.9008000E+02
EXPONENTS  5.9008000E+02 5.9008000E+02 2.0511305E+02 2.0511305E+02 2.0511305E+02
EXPONENTS  2.0511305E+02 2.0511305E+02 2.0511305E+02 2.0511305E+02 2.0511305E+02
EXPONENTS  2.0511305E+02 2.0511305E+02 8.8372543E+01 8.8372543E+01 8.8372543E+01
EXPONENTS  8.8372543E+01 8.8372543E+01 8.8372543E+01 8.8372543E+01 8.8372543E+01
EXPONENTS  8.8372543E+01 8.8372543E+01 4.1607097E+01 4.1607097E+01 4.1607097E+01
EXPONENTS  4.1607097E+01 4.1607097E+01 4.1607097E+01 4.1607097E+01 4.1607097E+01
EXPONENTS  4.1607097E+01 4.1607097E+01 2.0561976E+01 2.0561976E+01 2.0561976E+01
EXPONENTS  2.0561976E+01 2.0561976E+01 2.0561976E+01 2.0561976E+01 2.0561976E+01
EXPONENTS  2.0561976E+01 2.0561976E+01 1.0205373E+01 1.0205373E+01 1.0205373E+01
EXPONENTS  1.0205373E+01 1.0205373E+01 1.0205373E+01 1.0205373E+01 1.0205373E+01
EXPONENTS  1.0205373E+01 1.0205373E+01 5.0759976E+00 5.0759976E+00 5.0759976E+00
EXPONENTS  5.0759976E+00 5.0759976E+00 5.0759976E+00 5.0759976E+00 5.0759976E+00
EXPONENTS  5.0759976E+00 5.0759976E+00 1.0300000E+01 1.0300000E+01 1.0300000E+01
EXPONENTS  1.0300000E+01 1.0300000E+01 1.0300000E+01 1.0300000E+01 1.0300000E+01
EXPONENTS  1.0300000E+01 1.0300000E+01 2.5133262E+00 2.5133262E+00 2.5133262E+00
EXPONENTS  2.5133262E+00 2.5133262E+00 2.5133262E+00 2.5133262E+00 2.5133262E+00
EXPONENTS  2.5133262E+00 2.5133262E+00 1.1668394E+00 1.1668394E+00 1.1668394E+00
EXPONENTS  1.1668394E+00 1.1668394E+00 1.1668394E+00 1.1668394E+00 1.1668394E+00
EXPONENTS  1.1668394E+00 1.1668394E+00 4.4130000E-01 4.4130000E-01 4.4130000E-01
EXPONENTS  4.4130000E-01 4.4130000E-01 4.4130000E-01 4.4130000E-01 4.4130000E-01
EXPONENTS  4.4130000E-01 4.4130000E-01 1.7820000E-01 1.7820000E-01 1.7820000E-01
EXPONENTS  1.7820000E-01 1.7820000E-01 1.7820000E-01 1.7820000E-01 1.7820000E-01
EXPONENTS  1.7820000E-01 1.7820000E-01 3.8810000E-01 3.8810000E-01 3.8810000E-01
EXPONENTS  3.8810000E-01 3.8810000E-01 3.8810000E-01 3.8810000E-01 3.8810000E-01
EXPONENTS  3.8810000E-01 3.8810000E-01 3.8810000E-01 3.8810000E-01 3.8810000E-01
EXPONENTS  3.8810000E-01 3.8810000E-01
MO    1                     OCC NO =   1.00000000 ORB. ENERGY = -3233.41997045
  2.88767920E+02  2.85365199E+02  2.45940162E+02  2.05816966E+02  1.69725937E+02
  1.49981045E+02  1.30697805E+02  1.18797144E+02  1.07629774E+02  9.31168621E+01
  7.44721324E+01  4.84122364E+01 -6.98461229E-02 -1.49604897E-01 -2.61392448E-01
 -3.09116995E-01  1.80189050E+01  8.77714555E-01  5.87434587E-01 -2.87140537E-01
  1.33496155E-01 -5.47475576E-02  1.85602674E-02 -6.69421395E-03  2.08635764E-03
 -1.03708617E-03  3.20178266E-04 -1.12248396E-04  1.96915121E-05 -2.59675648E-06
  0.00000000E+00  0.00000000E+00  0.00000000E+00  0.00000000E+00  0.00000000E+00
  0.00000000E+00  0.00000000E+00  0.00000000E+00  0.00000000E+00  0.00000000E+00
  0.00000000E+00  0.00000000E+00  0.00000000E+00  0.00000000E+00  0.00000000E+00
  0.00000000E+00  0.00000000E+00  0.00000000E+00  0.00000000E+00  0.00000000E+00
  0.00000000E+00  0.00000000E+00  0.00000000E+00  0.00000000E+00  0.00000000E+00
  0.00000000E+00  0.00000000E+00  0.00000000E+00  0.00000000E+00  0.00000000E+00
  0.00000000E+00  0.00000000E+00  0.00000000E+00  0.00000000E+00  0.00000000E+00
  0.00000000E+00  0.00000000E+00  0.00000000E+00  0.00000000E+00  0.00000000E+00
  0.00000000E+00  0.00000000E+00  0.00000000E+00  0.00000000E+00  0.00000000E+00
  0.00000000E+00  0.00000000E+00  0.00000000E+00  0.00000000E+00  0.00000000E+00
  0.00000000E+00  0.00000000E+00  0.00000000E+00  0.00000000E+00  0.00000000E+00
  0.00000000E+00  0.00000000E+00  0.00000000E+00  0.00000000E+00  0.00000000E+00
  0.00000000E+00  0.00000000E+00  0.00000000E+00  0.00000000E+00  0.00000000E+00
  0.00000000E+00  0.00000000E+00  0.00000000E+00  0.00000000E+00  0.00000000E+00
  0.00000000E+00  0.00000000E+00  0.00000000E+00  0.00000000E+00  0.00000000E+00
  0.00000000E+00  0.00000000E+00  0.00000000E+00  0.00000000E+00  0.00000000E+00
  0.00000000E+00  0.00000000E+00  0.00000000E+00  0.00000000E+00  0.00000000E+00
  0.00000000E+00  0.00000000E+00  0.00000000E+00  0.00000000E+00  0.00000000E+00
  0.00000000E+00  0.00000000E+00  0.00000000E+00  0.00000000E+00  0.00000000E+00
  0.00000000E+00  0.00000000E+00  0.00000000E+00  0.00000000E+00  0.00000000E+00
  0.00000000E+00  0.00000000E+00  0.00000000E+00  0.00000000E+00  0.00000000E+00
  0.00000000E+00  0.00000000E+00  0.00000000E+00  0.00000000E+00  0.00000000E+00
  0.00000000E+00  0.00000000E+00  0.00000000E+00  0.00000000E+00  0.00000000E+00
  0.00000000E+00  0.00000000E+00  0.00000000E+00  0.00000000E+00  0.00000000E+00
  0.00000000E+00  0.00000000E+00  0.00000000E+00  0.00000000E+00  0.00000000E+00
  0.00000000E+00  0.00000000E+00  0.00000000E+00  0.00000000E+00  0.00000000E+00
  0.00000000E+00  0.00000000E+00  0.00000000E+00  0.00000000E+00  0.00000000E+00
  0.00000000E+00  0.00000000E+00  0.00000000E+00  0.00000000E+00  0.00000000E+00
  0.00000000E+00  0.00000000E+00  0.00000000E+00  0.00000000E+00  0.00000000E+00
  0.00000000E+00  0.00000000E+00  0.00000000E+00  0.00000000E+00  0.00000000E+00
  0.00000000E+00  0.00000000E+00  0.00000000E+00  0.00000000E+00  0.00000000E+00
  0.00000000E+00  0.00000000E+00  0.00000000E+00  0.00000000E+00  0.00000000E+00
  0.00000000E+00  0.00000000E+00  0.00000000E+00  0.00000000E+00  0.00000000E+00
  0.00000000E+00  0.00000000E+00  0.00000000E+00  0.00000000E+00  0.00000000E+00
  0.00000000E+00  0.00000000E+00  0.00000000E+00  0.00000000E+00  0.00000000E+00
  0.00000000E+00  0.00000000E+00  0.00000000E+00  0.00000000E+00  0.00000000E+00
  0.00000000E+00  0.00000000E+00  0.00000000E+00  0.00000000E+00  0.00000000E+00
  0.00000000E+00  0.00000000E+00  0.00000000E+00  0.00000000E+00  0.00000000E+00
  0.00000000E+00  0.00000000E+00  0.00000000E+00  0.00000000E+00  0.00000000E+00
  0.00000000E+00  0.00000000E+00  0.00000000E+00  0.00000000E+00  0.00000000E+00
  0.00000000E+00  0.00000000E+00  0.00000000E+00  0.00000000E+00  0.00000000E+00
  0.00000000E+00  0.00000000E+00  0.00000000E+00  0.00000000E+00  0.00000000E+00
  0.00000000E+00  0.00000000E+00  0.00000000E+00  0.00000000E+00  0.00000000E+00
  0.00000000E+00  0.00000000E+00  0.00000000E+00  0.00000000E+00  0.00000000E+00
  0.00000000E+00  0.00000000E+00  0.00000000E+00  0.00000000E+00  0.00000000E+00
  0.00000000E+00  0.00000000E+00  0.00000000E+00  0.00000000E+00  0.00000000E+00
  0.00000000E+00  0.00000000E+00  0.00000000E+00  0.00000000E+00  0.00000000E+00
  0.00000000E+00  0.00000000E+00  0.00000000E+00  0.00000000E+00  0.00000000E+00
  0.00000000E+00  0.00000000E+00  0.00000000E+00  0.00000000E+00  0.00000000E+00
  0.00000000E+00  0.00000000E+00  0.00000000E+00  0.00000000E+00  0.00000000E+00
  0.00000000E+00  0.00000000E+00  0.00000000E+00  0.00000000E+00  0.00000000E+00
  0.00000000E+00  0.00000000E+00  0.00000000E+00  0.00000000E+00  0.00000000E+00
  0.00000000E+00  0.00000000E+00  0.00000000E+00  0.00000000E+00  0.00000000E+00
  0.00000000E+00  0.00000000E+00  0.00000000E+00  0.00000000E+00  0.00000000E+00
  0.00000000E+00  0.00000000E+00  0.00000000E+00  0.00000000E+00  0.00000000E+00
  0.00000000E+00  0.00000000E+00  0.00000000E+00  0.00000000E+00  0.00000000E+00
  0.00000000E+00  0.00000000E+00  0.00000000E+00  0.00000000E+00  0.00000000E+00
  0.00000000E+00  0.00000000E+00  0.00000000E+00  0.00000000E+00  0.00000000E+00
  0.00000000E+00  0.00000000E+00  0.00000000E+00  0.00000000E+00  0.00000000E+00
  0.00000000E+00  0.00000000E+00  0.00000000E+00  0.00000000E+00  0.00000000E+00
  0.00000000E+00  0.00000000E+00  0.00000000E+00  0.00000000E+00  0.00000000E+00
  0.00000000E+00  0.00000000E+00  0.00000000E+00  0.00000000E+00  0.00000000E+00
  0.00000000E+00  0.00000000E+00  0.00000000E+00  0.00000000E+00  0.00000000E+00
  0.00000000E+00  0.00000000E+00  0.00000000E+00  0.00000000E+00  0.00000000E+00
  0.00000000E+00  0.00000000E+00  0.00000000E+00  0.00000000E+00  0.00000000E+00
  0.00000000E+00  0.00000000E+00  0.00000000E+00  0.00000000E+00  0.00000000E+00
  0.00000000E+00  0.00000000E+00  0.00000000E+00  0.00000000E+00  0.00000000E+00
  0.00000000E+00  0.00000000E+00  0.00000000E+00  0.00000000E+00  0.00000000E+00
  0.00000000E+00  0.00000000E+00  0.00000000E+00  0.00000000E+00  0.00000000E+00
  0.00000000E+00  0.00000000E+00  0.00000000E+00  0.00000000E+00  0.00000000E+00
  0.00000000E+00  0.00000000E+00  0.00000000E+00  0.00000000E+00  0.00000000E+00
  0.00000000E+00  0.00000000E+00
MO    2                     OCC NO =   1.00000000 ORB. ENERGY = -579.66076178
 -1.16261878E+02 -1.14891896E+02 -9.90188423E+01 -8.28646999E+01 -6.83339624E+01
 -6.03844013E+01 -5.26207075E+01 -4.78293403E+01 -4.33332057E+01 -3.74901107E+01
 -2.99834898E+01 -1.94914225E+01 -2.86465975E+00 -6.13587567E+00 -1.07207157E+01
 -1.26780840E+01 -9.74605036E+00  1.63639768E+01  1.87075234E+01  6.37840882E+00
  3.32783388E-01  2.71305308E-02 -1.03829529E-02  3.83097498E-03 -1.24247269E-03
  6.26868698E-04 -1.94820474E-04  6.85801983E-05 -1.20700167E-05  1.59316010E-06
  0.00000000E+00  0.00000000E+00  0.00000000E+00  0.00000000E+00  0.00000000E+00
  0.00000000E+00  0.00000000E+00  0.00000000E+00  0.00000000E+00  0.00000000E+00
  0.00000000E+00  0.00000000E+00  0.00000000E+00  0.00000000E+00  0.00000000E+00
  0.00000000E+00  0.00000000E+00  0.00000000E+00  0.00000000E+00  0.00000000E+00
  0.00000000E+00  0.00000000E+00  0.00000000E+00  0.00000000E+00  0.00000000E+00
  0.00000000E+00  0.00000000E+00  0.00000000E+00  0.00000000E+00  0.00000000E+00
  0.00000000E+00  0.00000000E+00  0.00000000E+00  0.00000000E+00  0.00000000E+00
  0.00000000E+00  0.00000000E+00  0.00000000E+00  0.00000000E+00  0.00000000E+00
  0.00000000E+00  0.00000000E+00  0.00000000E+00  0.00000000E+00  0.00000000E+00
  0.00000000E+00  0.00000000E+00  0.00000000E+00  0.00000000E+00  0.00000000E+00
  0.00000000E+00  0.00000000E+00  0.00000000E+00  0.00000000E+00  0.00000000E+00
  0.00000000E+00  0.00000000E+00  0.00000000E+00  0.00000000E+00  0.00000000E+00
  0.00000000E+00  0.00000000E+00  0.00000000E+00  0.00000000E+00  0.00000000E+00
  0.00000000E+00  0.00000000E+00  0.00000000E+00  0.00000000E+00  0.00000000E+00
  0.00000000E+00  0.00000000E+00  0.00000000E+00  0.00000000E+00  0.00000000E+00
  0.00000000E+00  0.00000000E+00  0.00000000E+00  0.00000000E+00  0.00000000E+00
  0.00000000E+00  0.00000000E+00  0.00000000E+00  0.00000000E+00  0.00000000E+00
  0.00000000E+00  0.00000000E+00  0.00000000E+00  0.00000000E+00  0.00000000E+00
  0.00000000E+00  0.00000000E+00  0.00000000E+00  0.00000000E+00  0.00000000E+00
  0.00000000E+00  0.00000000E+00  0.00000000E+00  0.00000000E+00  0.00000000E+00
  0.00000000E+00  0.00000000E+00  0.00000000E+00  0.00000000E+00  0.00000000E+00
  0.00000000E+00  0.00000000E+00  0.00000000E+00  0.00000000E+00  0.00000000E+00
  0.00000000E+00  0.00000000E+00  0.00000000E+00  0.00000000E+00  0.00000000E+00
  0.00000000E+00  0.00000000E+00  0.00000000E+00  0.00000000E+00  0.00000000E+00
  0.00000000E+00  0.00000000E+00  0.00000000E+00  0.00000000E+00  0.00000000E+00
  0.00000000E+00  0.00000000E+00  0.00000000E+00  0.00000000E+00  0.00000000E+00
  0.00000000E+00  0.00000000E+00  0.00000000E+00  0.00000000E+00  0.00000000E+00
  0.00000000E+00  0.00000000E+00  0.00000000E+00  0.00000000E+00  0.00000000E+00
  0.00000000E+00  0.00000000E+00  0.00000000E+00  0.00000000E+00  0.00000000E+00
  0.00000000E+00  0.00000000E+00  0.00000000E+00  0.00000000E+00  0.00000000E+00
  0.00000000E+00  0.00000000E+00  0.00000000E+00  0.00000000E+00  0.00000000E+00
  0.00000000E+00  0.00000000E+00  0.00000000E+00  0.00000000E+00  0.00000000E+00
  0.00000000E+00  0.00000000E+00  0.00000000E+00  0.00000000E+00  0.00000000E+00
  0.00000000E+00  0.00000000E+00  0.00000000E+00  0.00000000E+00  0.00000000E+00
  0.00000000E+00  0.00000000E+00  0.00000000E+00  0.00000000E+00  0.00000000E+00
  0.00000000E+00  0.00000000E+00  0.00000000E+00  0.00000000E+00  0.00000000E+00
  0.00000000E+00  0.00000000E+00  0.00000000E+00  0.00000000E+00  0.00000000E+00
  0.00000000E+00  0.00000000E+00  0.00000000E+00  0.00000000E+00  0.00000000E+00
  0.00000000E+00  0.00000000E+00  0.00000000E+00  0.00000000E+00  0.00000000E+00
  0.00000000E+00  0.00000000E+00  0.00000000E+00  0.00000000E+00  0.00000000E+00
  0.00000000E+00  0.00000000E+00  0.00000000E+00  0.00000000E+00  0.00000000E+00
  0.00000000E+00  0.00000000E+00  0.00000000E+00  0.00000000E+00  0.00000000E+00
  0.00000000E+00  0.00000000E+00  0.00000000E+00  0.00000000E+00  0.00000000E+00
  0.00000000E+00  0.00000000E+00  0.00000000E+00  0.00000000E+00  0.00000000E+00
  0.00000000E+00  0.00000000E+00  0.00000000E+00  0.00000000E+00  0.00000000E+00
  0.00000000E+00  0.00000000E+00  0.00000000E+00  0.00000000E+00  0.00000000E+00
  0.00000000E+00  0.00000000E+00  0.00000000E+00  0.00000000E+00  0.00000000E+00
  0.00000000E+00  0.00000000E+00  0.00000000E+00  0.00000000E+00  0.00000000E+00
  0.00000000E+00  0.00000000E+00  0.00000000E+00  0.00000000E+00  0.00000000E+00
  0.00000000E+00  0.00000000E+00  0.00000000E+00  0.00000000E+00  0.00000000E+00
  0.00000000E+00  0.00000000E+00  0.00000000E+00  0.00000000E+00  0.00000000E+00
  0.00000000E+00  0.00000000E+00  0.00000000E+00  0.00000000E+00  0.00000000E+00
  0.00000000E+00  0.00000000E+00  0.00000000E+00  0.00000000E+00  0.00000000E+00
  0.00000000E+00  0.00000000E+00  0.00000000E+00  0.00000000E+00  0.00000000E+00
  0.00000000E+00  0.00000000E+00  0.00000000E+00  0.00000000E+00  0.00000000E+00
  0.00000000E+00  0.00000000E+00  0.00000000E+00  0.00000000E+00  0.00000000E+00
  0.00000000E+00  0.00000000E+00  0.00000000E+00  0.00000000E+00  0.00000000E+00
  0.00000000E+00  0.00000000E+00  0.00000000E+00  0.00000000E+00  0.00000000E+00
  0.00000000E+00  0.00000000E+00  0.00000000E+00  0.00000000E+00  0.00000000E+00
  0.00000000E+00  0.00000000E+00  0.00000000E+00  0.00000000E+00  0.00000000E+00
  0.00000000E+00  0.00000000E+00  0.00000000E+00  0.00000000E+00  0.00000000E+00
  0.00000000E+00  0.00000000E+00  0.00000000E+00  0.00000000E+00  0.00000000E+00
  0.00000000E+00  0.00000000E+00  0.00000000E+00  0.00000000E+00  0.00000000E+00
  0.00000000E+00  0.00000000E+00  0.00000000E+00  0.00000000E+00  0.00000000E+00
  0.00000000E+00  0.00000000E+00  0.00000000E+00  0.00000000E+00  0.00000000E+00
  0.00000000E+00  0.00000000E+00  0.00000000E+00  0.00000000E+00  0.00000000E+00
  0.00000000E+00  0.00000000E+00  0.00000000E+00  0.00000000E+00  0.00000000E+00
  0.00000000E+00  0.00000000E+00  0.00000000E+00  0.00000000E+00  0.00000000E+00
  0.00000000E+00  0.00000000E+00  0.00000000E+00  0.00000000E+00  0.00000000E+00
  0.00000000E+00  0.00000000E+00  0.00000000E+00  0.00000000E+00  0.00000000E+00
  0.00000000E+00  0.00000000E+00  0.00000000E+00  0.00000000E+00  0.00000000E+00
  0.00000000E+00  0.00000000E+00
MO    3                     OCC NO =   1.00000000 ORB. ENERGY = -139.84967767
  5.59850499E+01  5.53253453E+01  4.76817931E+01  3.99028850E+01  3.29057155E+01
  2.90776630E+01  2.53391136E+01  2.30318660E+01  2.08667856E+01  1.80530863E+01
  1.44383283E+01  9.38595072E+00  1.69032811E+00  3.62054975E+00  6.32589161E+00
  7.48086115E+00  4.96429528E+00 -1.26898643E+01 -1.90144658E+01 -6.24896473E+00
  8.07103713E+00  5.24496948E+00  4.83696802E-01 -3.68708408E-02  9.18670485E-03
 -4.34387079E-03  1.29728194E-03 -4.52373504E-04  7.92844728E-05 -1.04479935E-05
  0.00000000E+00  0.00000000E+00  0.00000000E+00  0.00000000E+00  0.00000000E+00
  0.00000000E+00  0.00000000E+00  0.00000000E+00  0.00000000E+00  0.00000000E+00
  0.00000000E+00  0.00000000E+00  0.00000000E+00  0.00000000E+00  0.00000000E+00
  0.00000000E+00  0.00000000E+00  0.00000000E+00  0.00000000E+00  0.00000000E+00
  0.00000000E+00  0.00000000E+00  0.00000000E+00  0.00000000E+00  0.00000000E+00
  0.00000000E+00  0.00000000E+00  0.00000000E+00  0.00000000E+00  0.00000000E+00
  0.00000000E+00  0.00000000E+00  0.00000000E+00  0.00000000E+00  0.00000000E+00
  0.00000000E+00  0.00000000E+00  0.00000000E+00  0.00000000E+00  0.00000000E+00
  0.00000000E+00  0.00000000E+00  0.00000000E+00  0.00000000E+00  0.00000000E+00
  0.00000000E+00  0.00000000E+00  0.00000000E+00  0.00000000E+00  0.00000000E+00
  0.00000000E+00  0.00000000E+00  0.00000000E+00  0.00000000E+00  0.00000000E+00
  0.00000000E+00  0.00000000E+00  0.00000000E+00  0.00000000E+00  0.00000000E+00
  0.00000000E+00  0.00000000E+00  0.00000000E+00  0.00000000E+00  0.00000000E+00
  0.00000000E+00  0.00000000E+00  0.00000000E+00  0.00000000E+00  0.00000000E+00
  0.00000000E+00  0.00000000E+00  0.00000000E+00  0.00000000E+00  0.00000000E+00
  0.00000000E+00  0.00000000E+00  0.00000000E+00  0.00000000E+00  0.00000000E+00
  0.00000000E+00  0.00000000E+00  0.00000000E+00  0.00000000E+00  0.00000000E+00
  0.00000000E+00  0.00000000E+00  0.00000000E+00  0.00000000E+00  0.00000000E+00
  0.00000000E+00  0.00000000E+00  0.00000000E+00  0.00000000E+00  0.00000000E+00
  0.00000000E+00  0.00000000E+00  0.00000000E+00  0.00000000E+00  0.00000000E+00
  0.00000000E+00  0.00000000E+00  0.00000000E+00  0.00000000E+00  0.00000000E+00
  0.00000000E+00  0.00000000E+00  0.00000000E+00  0.00000000E+00  0.00000000E+00
  0.00000000E+00  0.00000000E+00  0.00000000E+00  0.00000000E+00  0.00000000E+00
  0.00000000E+00  0.00000000E+00  0.00000000E+00  0.00000000E+00  0.00000000E+00
  0.00000000E+00  0.00000000E+00  0.00000000E+00  0.00000000E+00  0.00000000E+00
  0.00000000E+00  0.00000000E+00  0.00000000E+00  0.00000000E+00  0.00000000E+00
  0.00000000E+00  0.00000000E+00  0.00000000E+00  0.00000000E+00  0.00000000E+00
  0.00000000E+00  0.00000000E+00  0.00000000E+00  0.00000000E+00  0.00000000E+00
  0.00000000E+00  0.00000000E+00  0.00000000E+00  0.00000000E+00  0.00000000E+00
  0.00000000E+00  0.00000000E+00  0.00000000E+00  0.00000000E+00  0.00000000E+00
  0.00000000E+00  0.00000000E+00  0.00000000E+00  0.00000000E+00  0.00000000E+00
  0.00000000E+00  0.00000000E+00  0.00000000E+00  0.00000000E+00  0.00000000E+00
  0.00000000E+00  0.00000000E+00  0.00000000E+00  0.00000000E+00  0.00000000E+00
  0.00000000E+00  0.00000000E+00  0.00000000E+00  0.00000000E+00  0.00000000E+00
  0.00000000E+00  0.00000000E+00  0.00000000E+00  0.00000000E+00  0.00000000E+00
  0.00000000E+00  0.00000000E+00  0.00000000E+00  0.00000000E+00  0.00000000E+00
  0.00000000E+00  0.00000000E+00  0.00000000E+00  0.00000000E+00  0.00000000E+00
  0.00000000E+00  0.00000000E+00  0.00000000E+00  0.00000000E+00  0.00000000E+00
  0.00000000E+00  0.00000000E+00  0.00000000E+00  0.00000000E+00  0.00000000E+00
  0.00000000E+00  0.00000000E+00  0.00000000E+00  0.00000000E+00  0.00000000E+00
  0.00000000E+00  0.00000000E+00  0.00000000E+00  0.00000000E+00  0.00000000E+00
  0.00000000E+00  0.00000000E+00  0.00000000E+00  0.00000000E+00  0.00000000E+00
  0.00000000E+00  0.00000000E+00  0.00000000E+00  0.00000000E+00  0.00000000E+00
  0.00000000E+00  0.00000000E+00  0.00000000E+00  0.00000000E+00  0.00000000E+00
  0.00000000E+00  0.00000000E+00  0.00000000E+00  0.00000000E+00  0.00000000E+00
  0.00000000E+00  0.00000000E+00  0.00000000E+00  0.00000000E+00  0.00000000E+00
  0.00000000E+00  0.00000000E+00  0.00000000E+00  0.00000000E+00  0.00000000E+00
  0.00000000E+00  0.00000000E+00  0.00000000E+00  0.00000000E+00  0.00000000E+00
  0.00000000E+00  0.00000000E+00  0.00000000E+00  0.00000000E+00  0.00000000E+00
  0.00000000E+00  0.00000000E+00  0.00000000E+00  0.00000000E+00  0.00000000E+00
  0.00000000E+00  0.00000000E+00  0.00000000E+00  0.00000000E+00  0.00000000E+00
  0.00000000E+00  0.00000000E+00  0.00000000E+00  0.00000000E+00  0.00000000E+00
  0.00000000E+00  0.00000000E+00  0.00000000E+00  0.00000000E+00  0.00000000E+00
  0.00000000E+00  0.00000000E+00  0.00000000E+00  0.00000000E+00  0.00000000E+00
  0.00000000E+00  0.00000000E+00  0.00000000E+00  0.00000000E+00  0.00000000E+00
  0.00000000E+00  0.00000000E+00  0.00000000E+00  0.00000000E+00  0.00000000E+00
  0.00000000E+00  0.00000000E+00  0.00000000E+00  0.00000000E+00  0.00000000E+00
  0.00000000E+00  0.00000000E+00  0.00000000E+00  0.00000000E+00  0.00000000E+00
  0.00000000E+00  0.00000000E+00  0.00000000E+00  0.00000000E+00  0.00000000E+00
  0.00000000E+00  0.00000000E+00  0.00000000E+00  0.00000000E+00  0.00000000E+00
  0.00000000E+00  0.00000000E+00  0.00000000E+00  0.00000000E+00  0.00000000E+00
  0.00000000E+00  0.00000000E+00  0.00000000E+00  0.00000000E+00  0.00000000E+00
  0.00000000E+00  0.00000000E+00  0.00000000E+00  0.00000000E+00  0.00000000E+00
  0.00000000E+00  0.00000000E+00  0.00000000E+00  0.00000000E+00  0.00000000E+00
  0.00000000E+00  0.00000000E+00  0.00000000E+00  0.00000000E+00  0.00000000E+00
  0.00000000E+00  0.00000000E+00  0.00000000E+00  0.00000000E+00  0.00000000E+00
  0.00000000E+00  0.00000000E+00  0.00000000E+00  0.00000000E+00  0.00000000E+00
  0.00000000E+00  0.00000000E+00  0.00000000E+00  0.00000000E+00  0.00000000E+00
  0.00000000E+00  0.00000000E+00  0.00000000E+00  0.00000000E+00  0.00000000E+00
  0.00000000E+00  0.00000000E+00  0.00000000E+00  0.00000000E+00  0.00000000E+00
  0.00000000E+00  0.00000000E+00  0.00000000E+00  0.00000000E+00  0.00000000E+00
  0.00000000E+00  0.00000000E+00
MO    4                     OCC NO =   1.00000000 ORB. ENERGY = -32.03412336
 -2.84212238E+01 -2.80863199E+01 -2.42060142E+01 -2.02569941E+01 -1.67048294E+01
 -1.47614903E+01 -1.28635880E+01 -1.16922968E+01 -1.05931777E+01 -9.16478250E+00
 -7.32972396E+00 -4.76484716E+00 -8.97533739E-01 -1.92244661E+00 -3.35893435E+00
 -3.97220234E+00 -2.58372919E+00  7.30452755E+00  1.16058845E+01  4.22089013E+00
 -8.64225437E+00 -6.82721072E+00  2.52861340E+00  2.47967955E+00  1.79300841E-01
 -3.34199381E-02  7.47476371E-03 -2.36509859E-03  3.93648666E-04 -5.12262454E-05
  0.00000000E+00  0.00000000E+00  0.00000000E+00  0.00000000E+00  0.00000000E+00
  0.00000000E+00  0.00000000E+00  0.00000000E+00  0.00000000E+00  0.00000000E+00
  0.00000000E+00  0.00000000E+00  0.00000000E+00  0.00000000E+00  0.00000000E+00
  0.00000000E+00  0.00000000E+00  0.00000000E+00  0.00000000E+00  0.00000000E+00
  0.00000000E+00  0.00000000E+00  0.00000000E+00  0.00000000E+00  0.00000000E+00
  0.00000000E+00  0.00000000E+00  0.00000000E+00  0.00000000E+00  0.00000000E+00
  0.00000000E+00  0.00000000E+00  0.00000000E+00  0.00000000E+00  0.00000000E+00
  0.00000000E+00  0.00000000E+00  0.00000000E+00  0.00000000E+00  0.00000000E+00
  0.00000000E+00  0.00000000E+00  0.00000000E+00  0.00000000E+00  0.00000000E+00