atomref-proatoms Pm_q0_mult6_nist x2c-QZVPall
GAUSSIAN             63 MOL ORBITALS    437 PRIMITIVES        1 NUCLEI
  Pm   1    (CENTRE  1)   0.00000000  0.00000000  0.00000000  CHARGE = 61.0
CENTRE ASSIGNMENTS    1  1  1  1  1  1  1  1  1  1  1  1  1  1  1  1  1  1  1  1
CENTRE ASSIGNMENTS    1  1  1  1  1  1  1  1  1  1  1  1  1  1  1  1  1  1  1  1
CENTRE ASSIGNMENTS    1  1  1  1  1  1  1  1  1  1  1  1  1  1  1  1  1  1  1  1
CENTRE ASSIGNMENTS    1  1  1  1  1  1  1  1  1  1  1  1  1  1  1  1  1  1  1  1
CENTRE ASSIGNMENTS    1  1  1  1  1  1  1  1  1  1  1  1  1  1  1  1  1  1  1  1
CENTRE ASSIGNMENTS    1  1  1  1  1  1  1  1  1  1  1  1  1  1  1  1  1  1  1  1
CENTRE ASSIGNMENTS    1  1  1  1  1  1  1  1  1  1  1  1  1  1  1  1  1  1  1  1
CENTRE ASSIGNMENTS    1  1  1  1  1  1  1  1  1  1  1  1  1  1  1  1  1  1  1  1
CENTRE ASSIGNMENTS    1  1  1  1  1  1  1  1  1  1  1  1  1  1  1  1  1  1  1  1
CENTRE ASSIGNMENTS    1  1  1  1  1  1  1  1  1  1  1  1  1  1  1  1  1  1  1  1
CENTRE ASSIGNMENTS    1  1  1  1  1  1  1  1  1  1  1  1  1  1  1  1  1  1  1  1
CENTRE ASSIGNMENTS    1  1  1  1  1  1  1  1  1  1  1  1  1  1  1  1  1  1  1  1
CENTRE ASSIGNMENTS    1  1  1  1  1  1  1  1  1  1  1  1  1  1  1  1  1  1  1  1
CENTRE ASSIGNMENTS    1  1  1  1  1  1  1  1  1  1  1  1  1  1  1  1  1  1  1  1
CENTRE ASSIGNMENTS    1  1  1  1  1  1  1  1  1  1  1  1  1  1  1  1  1  1  1  1
CENTRE ASSIGNMENTS    1  1  1  1  1  1  1  1  1  1  1  1  1  1  1  1  1  1  1  1
CENTRE ASSIGNMENTS    1  1  1  1  1  1  1  1  1  1  1  1  1  1  1  1  1  1  1  1
CENTRE ASSIGNMENTS    1  1  1  1  1  1  1  1  1  1  1  1  1  1  1  1  1  1  1  1
CENTRE ASSIGNMENTS    1  1  1  1  1  1  1  1  1  1  1  1  1  1  1  1  1  1  1  1
CENTRE ASSIGNMENTS    1  1  1  1  1  1  1  1  1  1  1  1  1  1  1  1  1  1  1  1
CENTRE ASSIGNMENTS    1  1  1  1  1  1  1  1  1  1  1  1  1  1  1  1  1  1  1  1
CENTRE ASSIGNMENTS    1  1  1  1  1  1  1  1  1  1  1  1  1  1  1  1  1
TYPE ASSIGNMENTS      1  1  1  1  1  1  1  1  1  1  1  1  1  1  1  1  1  1  1  1
TYPE ASSIGNMENTS      1  1  1  1  1  1  1  1  1  1  2  3  4  2  3  4  2  3  4  2
TYPE ASSIGNMENTS      3  4  2  3  4  2  3  4  2  3  4  2  3  4  2  3  4  2  3  4
TYPE ASSIGNMENTS      2  3  4  2  3  4  2  3  4  2  3  4  2  3  4  2  3  4  2  3
TYPE ASSIGNMENTS      4  2  3  4  2  3  4  2  3  4  2  3  4  2  3  4  2  3  4  2
TYPE ASSIGNMENTS      3  4  2  3  4  2  3  4  2  3  4  2  3  4  2  3  4  2  3  4
TYPE ASSIGNMENTS      2  3  4  2  3  4  2  3  4  2  3  4  5  8  9  6 10  7  5  8
TYPE ASSIGNMENTS      9  6 10  7  5  8  9  6 10  7  5  8  9  6 10  7  5  8  9  6
TYPE ASSIGNMENTS     10  7  5  8  9  6 10  7  5  8  9  6 10  7  5  8  9  6 10  7
TYPE ASSIGNMENTS      5  8  9  6 10  7  5  8  9  6 10  7  5  8  9  6 10  7  5  8
TYPE ASSIGNMENTS      9  6 10  7  5  8  9  6 10  7  5  8  9  6 10  7  5  8  9  6
TYPE ASSIGNMENTS     10  7  5  8  9  6 10  7  5  8  9  6 10  7  5  8  9  6 10  7
TYPE ASSIGNMENTS      5  8  9  6 10  7  5  8  9  6 10  7 11 14 15 17 20 18 12 16
TYPE ASSIGNMENTS     19 13 11 14 15 17 20 18 12 16 19 13 11 14 15 17 20 18 12 16
TYPE ASSIGNMENTS     19 13 11 14 15 17 20 18 12 16 19 13 11 14 15 17 20 18 12 16
TYPE ASSIGNMENTS     19 13 11 14 15 17 20 18 12 16 19 13 11 14 15 17 20 18 12 16
TYPE ASSIGNMENTS     19 13 11 14 15 17 20 18 12 16 19 13 11 14 15 17 20 18 12 16
TYPE ASSIGNMENTS     19 13 11 14 15 17 20 18 12 16 19 13 11 14 15 17 20 18 12 16
TYPE ASSIGNMENTS     19 13 21 24 25 30 33 31 26 34 35 28 22 27 32 29 23 21 24 25
TYPE ASSIGNMENTS     30 33 31 26 34 35 28 22 27 32 29 23 21 24 25 30 33 31 26 34
TYPE ASSIGNMENTS     35 28 22 27 32 29 23 21 24 25 30 33 31 26 34 35 28 22 27 32
TYPE ASSIGNMENTS     29 23 21 24 25 30 33 31 26 34 35 28 22 27 32 29 23
EXPONENTS  6.9689870E+07 1.9365493E+07 5.8241326E+06 1.8219176E+06 6.1295257E+05
EXPONENTS  2.1809726E+05 8.2377186E+04 3.2050716E+04 1.3716569E+04 6.1242355E+03
EXPONENTS  2.7921462E+03 1.0860979E+03 5.4339167E+04 1.2858623E+04 4.2285709E+03
EXPONENTS  1.5609676E+03 6.2776235E+02 3.4756673E+02 1.3065659E+02 7.3446990E+01
EXPONENTS  4.4205546E+01 1.9499211E+01 1.0379692E+01 4.8264152E+00 2.4167481E+00
EXPONENTS  9.4629979E-01 4.9745290E-01 2.2241714E-01 6.6814963E-02 2.6135810E-02
EXPONENTS  1.6670000E+02 1.6670000E+02 1.6670000E+02 3.0952076E+06 3.0952076E+06
EXPONENTS  3.0952076E+06 9.0455958E+05 9.0455958E+05 9.0455958E+05 2.7809956E+05
EXPONENTS  2.7809956E+05 2.7809956E+05 8.9945445E+04 8.9945445E+04 8.9945445E+04
EXPONENTS  3.0603689E+04 3.0603689E+04 3.0603689E+04 1.0954288E+04 1.0954288E+04
EXPONENTS  1.0954288E+04 4.1248696E+03 4.1248696E+03 4.1248696E+03 1.6343465E+03
EXPONENTS  1.6343465E+03 1.6343465E+03 6.7505058E+02 6.7505058E+02 6.7505058E+02
EXPONENTS  3.0108276E+02 3.0108276E+02 3.0108276E+02 1.4406994E+02 1.4406994E+02
EXPONENTS  1.4406994E+02 7.1869904E+01 7.1869904E+01 7.1869904E+01 3.5453331E+01
EXPONENTS  3.5453331E+01 3.5453331E+01 1.0792590E+03 1.0792590E+03 1.0792590E+03
EXPONENTS  3.7489045E+02 3.7489045E+02 3.7489045E+02 1.6511229E+02 1.6511229E+02
EXPONENTS  1.6511229E+02 4.1728507E+01 4.1728507E+01 4.1728507E+01 2.1586037E+01
EXPONENTS  2.1586037E+01 2.1586037E+01 1.1109628E+01 1.1109628E+01 1.1109628E+01
EXPONENTS  4.9781859E+00 4.9781859E+00 4.9781859E+00 6.6426776E+01 6.6426776E+01
EXPONENTS  6.6426776E+01 2.1485047E+01 2.1485047E+01 2.1485047E+01 6.6163510E+00
EXPONENTS  6.6163510E+00 6.6163510E+00 3.6088767E+00 3.6088767E+00 3.6088767E+00
EXPONENTS  1.7799108E+00 1.7799108E+00 1.7799108E+00 3.1559219E+00 3.1559219E+00
EXPONENTS  3.1559219E+00 1.0425419E+00 1.0425419E+00 1.0425419E+00 5.6796921E-01
EXPONENTS  5.6796921E-01 5.6796921E-01 6.5309191E-01 6.5309191E-01 6.5309191E-01
EXPONENTS  2.7138685E-01 2.7138685E-01 2.7138685E-01 1.1475985E-01 1.1475985E-01
EXPONENTS  1.1475985E-01 6.0288678E-02 6.0288678E-02 6.0288678E-02 1.8229127E-02
EXPONENTS  1.8229127E-02 1.8229127E-02 3.6410024E+03 3.6410024E+03 3.6410024E+03
EXPONENTS  3.6410024E+03 3.6410024E+03 3.6410024E+03 1.0984592E+03 1.0984592E+03
EXPONENTS  1.0984592E+03 1.0984592E+03 1.0984592E+03 1.0984592E+03 4.3068142E+02
EXPONENTS  4.3068142E+02 4.3068142E+02 4.3068142E+02 4.3068142E+02 4.3068142E+02
EXPONENTS  1.9187232E+02 1.9187232E+02 1.9187232E+02 1.9187232E+02 1.9187232E+02
EXPONENTS  1.9187232E+02 9.2442349E+01 9.2442349E+01 9.2442349E+01 9.2442349E+01
EXPONENTS  9.2442349E+01 9.2442349E+01 4.7062271E+01 4.7062271E+01 4.7062271E+01
EXPONENTS  4.7062271E+01 4.7062271E+01 4.7062271E+01 2.4317359E+01 2.4317359E+01
EXPONENTS  2.4317359E+01 2.4317359E+01 2.4317359E+01 2.4317359E+01 1.2521736E+01
EXPONENTS  1.2521736E+01 1.2521736E+01 1.2521736E+01 1.2521736E+01 1.2521736E+01
EXPONENTS  2.3000000E+01 2.3000000E+01 2.3000000E+01 2.3000000E+01 2.3000000E+01
EXPONENTS  2.3000000E+01 1.6604298E+02 1.6604298E+02 1.6604298E+02 1.6604298E+02
EXPONENTS  1.6604298E+02 1.6604298E+02 6.7989124E+01 6.7989124E+01 6.7989124E+01
EXPONENTS  6.7989124E+01 6.7989124E+01 6.7989124E+01 1.4487833E+01 1.4487833E+01
EXPONENTS  1.4487833E+01 1.4487833E+01 1.4487833E+01 1.4487833E+01 5.8826410E+00
EXPONENTS  5.8826410E+00 5.8826410E+00 5.8826410E+00 5.8826410E+00 5.8826410E+00
EXPONENTS  8.6234405E+00 8.6234405E+00 8.6234405E+00 8.6234405E+00 8.6234405E+00
EXPONENTS  8.6234405E+00 3.3271664E+00 3.3271664E+00 3.3271664E+00 3.3271664E+00
EXPONENTS  3.3271664E+00 3.3271664E+00 1.6336639E+00 1.6336639E+00 1.6336639E+00
EXPONENTS  1.6336639E+00 1.6336639E+00 1.6336639E+00 6.8626960E-01 6.8626960E-01
EXPONENTS  6.8626960E-01 6.8626960E-01 6.8626960E-01 6.8626960E-01 2.5138180E-01
EXPONENTS  2.5138180E-01 2.5138180E-01 2.5138180E-01 2.5138180E-01 2.5138180E-01
EXPONENTS  8.9159820E-02 8.9159820E-02 8.9159820E-02 8.9159820E-02 8.9159820E-02
EXPONENTS  8.9159820E-02 2.7716734E-02 2.7716734E-02 2.7716734E-02 2.7716734E-02
EXPONENTS  2.7716734E-02 2.7716734E-02 1.8556831E+02 1.8556831E+02 1.8556831E+02
EXPONENTS  1.8556831E+02 1.8556831E+02 1.8556831E+02 1.8556831E+02 1.8556831E+02
EXPONENTS  1.8556831E+02 1.8556831E+02 7.2084602E+01 7.2084602E+01 7.2084602E+01
EXPONENTS  7.2084602E+01 7.2084602E+01 7.2084602E+01 7.2084602E+01 7.2084602E+01
EXPONENTS  7.2084602E+01 7.2084602E+01 3.5476314E+01 3.5476314E+01 3.5476314E+01
EXPONENTS  3.5476314E+01 3.5476314E+01 3.5476314E+01 3.5476314E+01 3.5476314E+01
EXPONENTS  3.5476314E+01 3.5476314E+01 1.7675842E+01 1.7675842E+01 1.7675842E+01
EXPONENTS  1.7675842E+01 1.7675842E+01 1.7675842E+01 1.7675842E+01 1.7675842E+01
EXPONENTS  1.7675842E+01 1.7675842E+01 8.8563429E+00 8.8563429E+00 8.8563429E+00
EXPONENTS  8.8563429E+00 8.8563429E+00 8.8563429E+00 8.8563429E+00 8.8563429E+00
EXPONENTS  8.8563429E+00 8.8563429E+00 4.4862612E+00 4.4862612E+00 4.4862612E+00
EXPONENTS  4.4862612E+00 4.4862612E+00 4.4862612E+00 4.4862612E+00 4.4862612E+00
EXPONENTS  4.4862612E+00 4.4862612E+00 2.2552677E+00 2.2552677E+00 2.2552677E+00
EXPONENTS  2.2552677E+00 2.2552677E+00 2.2552677E+00 2.2552677E+00 2.2552677E+00
EXPONENTS  2.2552677E+00 2.2552677E+00 1.0877432E+00 1.0877432E+00 1.0877432E+00
EXPONENTS  1.0877432E+00 1.0877432E+00 1.0877432E+00 1.0877432E+00 1.0877432E+00
EXPONENTS  1.0877432E+00 1.0877432E+00 6.7700000E-01 6.7700000E-01 6.7700000E-01
EXPONENTS  6.7700000E-01 6.7700000E-01 6.7700000E-01 6.7700000E-01 6.7700000E-01
EXPONENTS  6.7700000E-01 6.7700000E-01 4.9573049E-01 4.9573049E-01 4.9573049E-01
EXPONENTS  4.9573049E-01 4.9573049E-01 4.9573049E-01 4.9573049E-01 4.9573049E-01
EXPONENTS  4.9573049E-01 4.9573049E-01 2.0303394E-01 2.0303394E-01 2.0303394E-01
EXPONENTS  2.0303394E-01 2.0303394E-01 2.0303394E-01 2.0303394E-01 2.0303394E-01
EXPONENTS  2.0303394E-01 2.0303394E-01 2.0494900E+01 2.0494900E+01 2.0494900E+01
EXPONENTS  2.0494900E+01 2.0494900E+01 2.0494900E+01 2.0494900E+01 2.0494900E+01
EXPONENTS  2.0494900E+01 2.0494900E+01 2.0494900E+01 2.0494900E+01 2.0494900E+01
EXPONENTS  2.0494900E+01 2.0494900E+01 9.3103000E+00 9.3103000E+00 9.3103000E+00
EXPONENTS  9.3103000E+00 9.3103000E+00 9.3103000E+00 9.3103000E+00 9.3103000E+00
EXPONENTS  9.3103000E+00 9.3103000E+00 9.3103000E+00 9.3103000E+00 9.3103000E+00
EXPONENTS  9.3103000E+00 9.3103000E+00 4.2351000E+00 4.2351000E+00 4.2351000E+00
EXPONENTS  4.2351000E+00 4.2351000E+00 4.2351000E+00 4.2351000E+00 4.2351000E+00
EXPONENTS  4.2351000E+00 4.2351000E+00 4.2351000E+00 4.2351000E+00 4.2351000E+00
EXPONENTS  4.2351000E+00 4.2351000E+00 1.8604000E+00 1.8604000E+00 1.8604000E+00
EXPONENTS  1.8604000E+00 1.8604000E+00 1.8604000E+00 1.8604000E+00 1.8604000E+00
EXPONENTS  1.8604000E+00 1.8604000E+00 1.8604000E+00 1.8604000E+00 1.8604000E+00
EXPONENTS  1.8604000E+00 1.8604000E+00 4.5190000E-01 4.5190000E-01 4.5190000E-01
EXPONENTS  4.5190000E-01 4.5190000E-01 4.5190000E-01 4.5190000E-01 4.5190000E-01
EXPONENTS  4.5190000E-01 4.5190000E-01 4.5190000E-01 4.5190000E-01 4.5190000E-01
EXPONENTS  4.5190000E-01 4.5190000E-01
MO    1                     OCC NO =   1.00000000 ORB. ENERGY = -1655.19749571
  8.37628008E+01  7.83072157E+01  7.32029842E+01  6.31901810E+01  5.69532324E+01
  5.25421613E+01  4.99293500E+01  4.89079169E+01  4.84942648E+01  4.38619413E+01
  3.97025215E+01  2.36996800E+01  3.62428175E+00  6.36945567E+00  1.71490788E+01
  3.11218597E+01  2.15584870E+01  9.72463633E+00  1.24813868E+00 -5.04601447E-01
  1.98497618E-01 -4.83360490E-02  1.96355879E-02 -5.98577426E-03  1.94466332E-03
 -5.30286347E-04  2.12407464E-04 -4.04847951E-05  4.68141698E-06 -7.67065610E-07
  0.00000000E+00  0.00000000E+00  0.00000000E+00  0.00000000E+00  0.00000000E+00
  0.00000000E+00  0.00000000E+00  0.00000000E+00  0.00000000E+00  0.00000000E+00
  0.00000000E+00  0.00000000E+00  0.00000000E+00  0.00000000E+00  0.00000000E+00
  0.00000000E+00  0.00000000E+00  0.00000000E+00  0.00000000E+00  0.00000000E+00
  0.00000000E+00  0.00000000E+00  0.00000000E+00  0.00000000E+00  0.00000000E+00
  0.00000000E+00  0.00000000E+00  0.00000000E+00  0.00000000E+00  0.00000000E+00
  0.00000000E+00  0.00000000E+00  0.00000000E+00  0.00000000E+00  0.00000000E+00
  0.00000000E+00  0.00000000E+00  0.00000000E+00  0.00000000E+00  0.00000000E+00
  0.00000000E+00  0.00000000E+00  0.00000000E+00  0.00000000E+00  0.00000000E+00
  0.00000000E+00  0.00000000E+00  0.00000000E+00  0.00000000E+00  0.00000000E+00
  0.00000000E+00  0.00000000E+00  0.00000000E+00  0.00000000E+00  0.00000000E+00
  0.00000000E+00  0.00000000E+00  0.00000000E+00  0.00000000E+00  0.00000000E+00
  0.00000000E+00  0.00000000E+00  0.00000000E+00  0.00000000E+00  0.00000000E+00
  0.00000000E+00  0.00000000E+00  0.00000000E+00  0.00000000E+00  0.00000000E+00
  0.00000000E+00  0.00000000E+00  0.00000000E+00  0.00000000E+00  0.00000000E+00
  0.00000000E+00  0.00000000E+00  0.00000000E+00  0.00000000E+00  0.00000000E+00
  0.00000000E+00  0.00000000E+00  0.00000000E+00  0.00000000E+00  0.00000000E+00
  0.00000000E+00  0.00000000E+00  0.00000000E+00  0.00000000E+00  0.00000000E+00
  0.00000000E+00  0.00000000E+00  0.00000000E+00  0.00000000E+00  0.00000000E+00
  0.00000000E+00  0.00000000E+00  0.00000000E+00  0.00000000E+00  0.00000000E+00
  0.00000000E+00  0.00000000E+00  0.00000000E+00  0.00000000E+00  0.00000000E+00
  0.00000000E+00  0.00000000E+00  0.00000000E+00  0.00000000E+00  0.00000000E+00
  0.00000000E+00  0.00000000E+00  0.00000000E+00  0.00000000E+00  0.00000000E+00
  0.00000000E+00  0.00000000E+00  0.00000000E+00  0.00000000E+00  0.00000000E+00
  0.00000000E+00  0.00000000E+00  0.00000000E+00  0.00000000E+00  0.00000000E+00
  0.00000000E+00  0.00000000E+00  0.00000000E+00  0.00000000E+00  0.00000000E+00
  0.00000000E+00  0.00000000E+00  0.00000000E+00  0.00000000E+00  0.00000000E+00
  0.00000000E+00  0.00000000E+00  0.00000000E+00  0.00000000E+00  0.00000000E+00
  0.00000000E+00  0.00000000E+00  0.00000000E+00  0.00000000E+00  0.00000000E+00
  0.00000000E+00  0.00000000E+00  0.00000000E+00  0.00000000E+00  0.00000000E+00
  0.00000000E+00  0.00000000E+00  0.00000000E+00  0.00000000E+00  0.00000000E+00
  0.00000000E+00  0.00000000E+00  0.00000000E+00  0.00000000E+00  0.00000000E+00
  0.00000000E+00  0.00000000E+00  0.00000000E+00  0.00000000E+00  0.00000000E+00
  0.00000000E+00  0.00000000E+00  0.00000000E+00  0.00000000E+00  0.00000000E+00
  0.00000000E+00  0.00000000E+00  0.00000000E+00  0.00000000E+00  0.00000000E+00
  0.00000000E+00  0.00000000E+00  0.00000000E+00  0.00000000E+00  0.00000000E+00
  0.00000000E+00  0.00000000E+00  0.00000000E+00  0.00000000E+00  0.00000000E+00
  0.00000000E+00  0.00000000E+00  0.00000000E+00  0.00000000E+00  0.00000000E+00
  0.00000000E+00  0.00000000E+00  0.00000000E+00  0.00000000E+00  0.00000000E+00
  0.00000000E+00  0.00000000E+00  0.00000000E+00  0.00000000E+00  0.00000000E+00
  0.00000000E+00  0.00000000E+00  0.00000000E+00  0.00000000E+00  0.00000000E+00
  0.00000000E+00  0.00000000E+00  0.00000000E+00  0.00000000E+00  0.00000000E+00
  0.00000000E+00  0.00000000E+00  0.00000000E+00  0.00000000E+00  0.00000000E+00
  0.00000000E+00  0.00000000E+00  0.00000000E+00  0.00000000E+00  0.00000000E+00
  0.00000000E+00  0.00000000E+00  0.00000000E+00  0.00000000E+00  0.00000000E+00
  0.00000000E+00  0.00000000E+00  0.00000000E+00  0.00000000E+00  0.00000000E+00
  0.00000000E+00  0.00000000E+00  0.00000000E+00  0.00000000E+00  0.00000000E+00
  0.00000000E+00  0.00000000E+00  0.00000000E+00  0.00000000E+00  0.00000000E+00
  0.00000000E+00  0.00000000E+00  0.00000000E+00  0.00000000E+00  0.00000000E+00
  0.00000000E+00  0.00000000E+00  0.00000000E+00  0.00000000E+00  0.00000000E+00
  0.00000000E+00  0.00000000E+00  0.00000000E+00  0.00000000E+00  0.00000000E+00
  0.00000000E+00  0.00000000E+00  0.00000000E+00  0.00000000E+00  0.00000000E+00
  0.00000000E+00  0.00000000E+00  0.00000000E+00  0.00000000E+00  0.00000000E+00
  0.00000000E+00  0.00000000E+00  0.00000000E+00  0.00000000E+00  0.00000000E+00
  0.00000000E+00  0.00000000E+00  0.00000000E+00  0.00000000E+00  0.00000000E+00
  0.00000000E+00  0.00000000E+00  0.00000000E+00  0.00000000E+00  0.00000000E+00
  0.00000000E+00  0.00000000E+00  0.00000000E+00  0.00000000E+00  0.00000000E+00
  0.00000000E+00  0.00000000E+00  0.00000000E+00  0.00000000E+00  0.00000000E+00
  0.00000000E+00  0.00000000E+00  0.00000000E+00  0.00000000E+00  0.00000000E+00
  0.00000000E+00  0.00000000E+00  0.00000000E+00  0.00000000E+00  0.00000000E+00
  0.00000000E+00  0.00000000E+00  0.00000000E+00  0.00000000E+00  0.00000000E+00
  0.00000000E+00  0.00000000E+00  0.00000000E+00  0.00000000E+00  0.00000000E+00
  0.00000000E+00  0.00000000E+00  0.00000000E+00  0.00000000E+00  0.00000000E+00
  0.00000000E+00  0.00000000E+00  0.00000000E+00  0.00000000E+00  0.00000000E+00
  0.00000000E+00  0.00000000E+00  0.00000000E+00  0.00000000E+00  0.00000000E+00
  0.00000000E+00  0.00000000E+00  0.00000000E+00  0.00000000E+00  0.00000000E+00
  0.00000000E+00  0.00000000E+00  0.00000000E+00  0.00000000E+00  0.00000000E+00
  0.00000000E+00  0.00000000E+00  0.00000000E+00  0.00000000E+00  0.00000000E+00
  0.00000000E+00  0.00000000E+00  0.00000000E+00  0.00000000E+00  0.00000000E+00
  0.00000000E+00  0.00000000E+00  0.00000000E+00  0.00000000E+00  0.00000000E+00
  0.00000000E+00  0.00000000E+00  0.00000000E+00  0.00000000E+00  0.00000000E+00
  0.00000000E+00  0.00000000E+00  0.00000000E+00  0.00000000E+00  0.00000000E+00
  0.00000000E+00  0.00000000E+00  0.00000000E+00  0.00000000E+00  0.00000000E+00
  0.00000000E+00  0.00000000E+00  0.00000000E+00  0.00000000E+00  0.00000000E+00
  0.00000000E+00  0.00000000E+00  0.00000000E+00  0.00000000E+00  0.00000000E+00
  0.00000000E+00  0.00000000E+00  0.00000000E+00  0.00000000E+00  0.00000000E+00
  0.00000000E+00  0.00000000E+00  0.00000000E+00  0.00000000E+00  0.00000000E+00
  0.00000000E+00  0.00000000E+00  0.00000000E+00  0.00000000E+00  0.00000000E+00
  0.00000000E+00  0.00000000E+00  0.00000000E+00  0.00000000E+00  0.00000000E+00
  0.00000000E+00  0.00000000E+00  0.00000000E+00  0.00000000E+00  0.00000000E+00
  0.00000000E+00  0.00000000E+00  0.00000000E+00  0.00000000E+00  0.00000000E+00
  0.00000000E+00  0.00000000E+00
MO    2                     OCC NO =   1.00000000 ORB. ENERGY = -270.17063618
 -3.05330855E+01 -2.85444241E+01 -2.66838376E+01 -2.30339862E+01 -2.07605034E+01
 -1.91525867E+01 -1.82001688E+01 -1.78278376E+01 -1.76770538E+01 -1.59884864E+01
 -1.44723012E+01 -8.63897037E+00 -2.11620623E+00 -3.71910427E+00 -1.00132909E+01
 -1.81719518E+01 -1.67380952E+01 -2.51951944E+00  1.09314994E+01  7.26292696E+00
  3.70520125E+00  2.97813451E-01 -3.83629615E-02  8.21932463E-03 -2.38790921E-03
  6.00122257E-04 -2.34900887E-04  4.44439470E-05 -5.10726180E-06  8.35959067E-07
  0.00000000E+00  0.00000000E+00  0.00000000E+00  0.00000000E+00  0.00000000E+00
  0.00000000E+00  0.00000000E+00  0.00000000E+00  0.00000000E+00  0.00000000E+00
  0.00000000E+00  0.00000000E+00  0.00000000E+00  0.00000000E+00  0.00000000E+00
  0.00000000E+00  0.00000000E+00  0.00000000E+00  0.00000000E+00  0.00000000E+00
  0.00000000E+00  0.00000000E+00  0.00000000E+00  0.00000000E+00  0.00000000E+00
  0.00000000E+00  0.00000000E+00  0.00000000E+00  0.00000000E+00  0.00000000E+00
  0.00000000E+00  0.00000000E+00  0.00000000E+00  0.00000000E+00  0.00000000E+00
  0.00000000E+00  0.00000000E+00  0.00000000E+00  0.00000000E+00  0.00000000E+00
  0.00000000E+00  0.00000000E+00  0.00000000E+00  0.00000000E+00  0.00000000E+00
  0.00000000E+00  0.00000000E+00  0.00000000E+00  0.00000000E+00  0.00000000E+00
  0.00000000E+00  0.00000000E+00  0.00000000E+00  0.00000000E+00  0.00000000E+00
  0.00000000E+00  0.00000000E+00  0.00000000E+00  0.00000000E+00  0.00000000E+00
  0.00000000E+00  0.00000000E+00  0.00000000E+00  0.00000000E+00  0.00000000E+00
  0.00000000E+00  0.00000000E+00  0.00000000E+00  0.00000000E+00  0.00000000E+00
  0.00000000E+00  0.00000000E+00  0.00000000E+00  0.00000000E+00  0.00000000E+00
  0.00000000E+00  0.00000000E+00  0.00000000E+00  0.00000000E+00  0.00000000E+00
  0.00000000E+00  0.00000000E+00  0.00000000E+00  0.00000000E+00  0.00000000E+00
  0.00000000E+00  0.00000000E+00  0.00000000E+00  0.00000000E+00  0.00000000E+00
  0.00000000E+00  0.00000000E+00  0.00000000E+00  0.00000000E+00  0.00000000E+00
  0.00000000E+00  0.00000000E+00  0.00000000E+00  0.00000000E+00  0.00000000E+00
  0.00000000E+00  0.00000000E+00  0.00000000E+00  0.00000000E+00  0.00000000E+00
  0.00000000E+00  0.00000000E+00  0.00000000E+00  0.00000000E+00  0.00000000E+00
  0.00000000E+00  0.00000000E+00  0.00000000E+00  0.00000000E+00  0.00000000E+00
  0.00000000E+00  0.00000000E+00  0.00000000E+00  0.00000000E+00  0.00000000E+00
  0.00000000E+00  0.00000000E+00  0.00000000E+00  0.00000000E+00  0.00000000E+00
  0.00000000E+00  0.00000000E+00  0.00000000E+00  0.00000000E+00  0.00000000E+00
  0.00000000E+00  0.00000000E+00  0.00000000E+00  0.00000000E+00  0.00000000E+00
  0.00000000E+00  0.00000000E+00  0.00000000E+00  0.00000000E+00  0.00000000E+00
  0.00000000E+00  0.00000000E+00  0.00000000E+00  0.00000000E+00  0.00000000E+00
  0.00000000E+00  0.00000000E+00  0.00000000E+00  0.00000000E+00  0.00000000E+00
  0.00000000E+00  0.00000000E+00  0.00000000E+00  0.00000000E+00  0.00000000E+00
  0.00000000E+00  0.00000000E+00  0.00000000E+00  0.00000000E+00  0.00000000E+00
  0.00000000E+00  0.00000000E+00  0.00000000E+00  0.00000000E+00  0.00000000E+00
  0.00000000E+00  0.00000000E+00  0.00000000E+00  0.00000000E+00  0.00000000E+00
  0.00000000E+00  0.00000000E+00  0.00000000E+00  0.00000000E+00  0.00000000E+00
  0.00000000E+00  0.00000000E+00  0.00000000E+00  0.00000000E+00  0.00000000E+00
  0.00000000E+00  0.00000000E+00  0.00000000E+00  0.00000000E+00  0.00000000E+00
  0.00000000E+00  0.00000000E+00  0.00000000E+00  0.00000000E+00  0.00000000E+00
  0.00000000E+00  0.00000000E+00  0.00000000E+00  0.00000000E+00  0.00000000E+00
  0.00000000E+00  0.00000000E+00  0.00000000E+00  0.00000000E+00  0.00000000E+00
  0.00000000E+00  0.00000000E+00  0.00000000E+00  0.00000000E+00  0.00000000E+00
  0.00000000E+00  0.00000000E+00  0.00000000E+00  0.00000000E+00  0.00000000E+00
  0.00000000E+00  0.00000000E+00  0.00000000E+00  0.00000000E+00  0.00000000E+00
  0.00000000E+00  0.00000000E+00  0.00000000E+00  0.00000000E+00  0.00000000E+00
  0.00000000E+00  0.00000000E+00  0.00000000E+00  0.00000000E+00  0.00000000E+00
  0.00000000E+00  0.00000000E+00  0.00000000E+00  0.00000000E+00  0.00000000E+00
  0.00000000E+00  0.00000000E+00  0.00000000E+00  0.00000000E+00  0.00000000E+00
  0.00000000E+00  0.00000000E+00  0.00000000E+00  0.00000000E+00  0.00000000E+00
  0.00000000E+00  0.00000000E+00  0.00000000E+00  0.00000000E+00  0.00000000E+00
  0.00000000E+00  0.00000000E+00  0.00000000E+00  0.00000000E+00  0.00000000E+00
  0.00000000E+00  0.00000000E+00  0.00000000E+00  0.00000000E+00  0.00000000E+00
  0.00000000E+00  0.00000000E+00  0.00000000E+00  0.00000000E+00  0.00000000E+00
  0.00000000E+00  0.00000000E+00  0.00000000E+00  0.00000000E+00  0.00000000E+00
  0.00000000E+00  0.00000000E+00  0.00000000E+00  0.00000000E+00  0.00000000E+00
  0.00000000E+00  0.00000000E+00  0.00000000E+00  0.00000000E+00  0.00000000E+00
  0.00000000E+00  0.00000000E+00  0.00000000E+00  0.00000000E+00  0.00000000E+00
  0.00000000E+00  0.00000000E+00  0.00000000E+00  0.00000000E+00  0.00000000E+00
  0.00000000E+00  0.00000000E+00  0.00000000E+00  0.00000000E+00  0.00000000E+00
  0.00000000E+00  0.00000000E+00  0.00000000E+00  0.00000000E+00  0.00000000E+00
  0.00000000E+00  0.00000000E+00  0.00000000E+00  0.00000000E+00  0.00000000E+00
  0.00000000E+00  0.00000000E+00  0.00000000E+00  0.00000000E+00  0.00000000E+00
  0.00000000E+00  0.00000000E+00  0.00000000E+00  0.00000000E+00  0.00000000E+00
  0.00000000E+00  0.00000000E+00  0.00000000E+00  0.00000000E+00  0.00000000E+00
  0.00000000E+00  0.00000000E+00  0.00000000E+00  0.00000000E+00  0.00000000E+00
  0.00000000E+00  0.00000000E+00  0.00000000E+00  0.00000000E+00  0.00000000E+00
  0.00000000E+00  0.00000000E+00  0.00000000E+00  0.00000000E+00  0.00000000E+00
  0.00000000E+00  0.00000000E+00  0.00000000E+00  0.00000000E+00  0.00000000E+00
  0.00000000E+00  0.00000000E+00  0.00000000E+00  0.00000000E+00  0.00000000E+00
  0.00000000E+00  0.00000000E+00  0.00000000E+00  0.00000000E+00  0.00000000E+00
  0.00000000E+00  0.00000000E+00  0.00000000E+00  0.00000000E+00  0.00000000E+00
  0.00000000E+00  0.00000000E+00  0.00000000E+00  0.00000000E+00  0.00000000E+00
  0.00000000E+00  0.00000000E+00  0.00000000E+00  0.00000000E+00  0.00000000E+00
  0.00000000E+00  0.00000000E+00  0.00000000E+00  0.00000000E+00  0.00000000E+00
  0.00000000E+00  0.00000000E+00  0.00000000E+00  0.00000000E+00  0.00000000E+00
  0.00000000E+00  0.00000000E+00  0.00000000E+00  0.00000000E+00  0.00000000E+00
  0.00000000E+00  0.00000000E+00  0.00000000E+00  0.00000000E+00  0.00000000E+00
  0.00000000E+00  0.00000000E+00  0.00000000E+00  0.00000000E+00  0.00000000E+00
  0.00000000E+00  0.00000000E+00  0.00000000E+00  0.00000000E+00  0.00000000E+00
  0.00000000E+00  0.00000000E+00  0.00000000E+00  0.00000000E+00  0.00000000E+00
  0.00000000E+00  0.00000000E+00  0.00000000E+00  0.00000000E+00  0.00000000E+00
  0.00000000E+00  0.00000000E+00  0.00000000E+00  0.00000000E+00  0.00000000E+00
  0.00000000E+00  0.00000000E+00
MO    3                     OCC NO =   1.00000000 ORB. ENERGY = -59.40276687
  1.40522597E+01  1.31370169E+01  1.22807181E+01  1.06009449E+01  9.55461857E+00
  8.81460611E+00  8.37627427E+00  8.20491606E+00  8.13552073E+00  7.35839041E+00
  6.66059560E+00  3.97591836E+00  1.04061982E+00  1.82882631E+00  4.92391943E+00
  8.93584613E+00  8.78006741E+00  8.43941589E-01 -8.24106593E+00 -7.97364553E+00
 -3.02495767E+00  4.35269160E+00  2.57330499E+00  2.09961223E-01 -1.44414759E-02
  3.30881005E-03 -1.26574982E-03  2.33587626E-04 -2.69530342E-05  4.41497988E-06
  0.00000000E+00  0.00000000E+00  0.00000000E+00  0.00000000E+00  0.00000000E+00
  0.00000000E+00  0.00000000E+00  0.00000000E+00  0.00000000E+00  0.00000000E+00
  0.00000000E+00  0.00000000E+00  0.00000000E+00  0.00000000E+00  0.00000000E+00
  0.00000000E+00  0.00000000E+00  0.00000000E+00  0.00000000E+00  0.00000000E+00
  0.00000000E+00  0.00000000E+00  0.00000000E+00  0.00000000E+00  0.00000000E+00
  0.00000000E+00  0.00000000E+00  0.00000000E+00  0.00000000E+00  0.00000000E+00
  0.00000000E+00  0.00000000E+00  0.00000000E+00  0.00000000E+00  0.00000000E+00
  0.00000000E+00  0.00000000E+00  0.00000000E+00  0.00000000E+00  0.00000000E+00
  0.00000000E+00  0.00000000E+00  0.00000000E+00  0.00000000E+00  0.00000000E+00
  0.00000000E+00  0.00000000E+00  0.00000000E+00  0.00000000E+00  0.00000000E+00
  0.00000000E+00  0.00000000E+00  0.00000000E+00  0.00000000E+00  0.00000000E+00
  0.00000000E+00  0.00000000E+00  0.00000000E+00  0.00000000E+00  0.00000000E+00
  0.00000000E+00  0.00000000E+00  0.00000000E+00  0.00000000E+00  0.00000000E+00
  0.00000000E+00  0.00000000E+00  0.00000000E+00  0.00000000E+00  0.00000000E+00
  0.00000000E+00  0.00000000E+00  0.00000000E+00  0.00000000E+00  0.00000000E+00
  0.00000000E+00  0.00000000E+00  0.00000000E+00  0.00000000E+00  0.00000000E+00
  0.00000000E+00  0.00000000E+00  0.00000000E+00  0.00000000E+00  0.00000000E+00
  0.00000000E+00  0.00000000E+00  0.00000000E+00  0.00000000E+00  0.00000000E+00
  0.00000000E+00  0.00000000E+00  0.00000000E+00  0.00000000E+00  0.00000000E+00
  0.00000000E+00  0.00000000E+00  0.00000000E+00  0.00000000E+00  0.00000000E+00
  0.00000000E+00  0.00000000E+00  0.00000000E+00  0.00000000E+00  0.00000000E+00
  0.00000000E+00  0.00000000E+00  0.00000000E+00  0.00000000E+00  0.00000000E+00
  0.00000000E+00  0.00000000E+00  0.00000000E+00  0.00000000E+00  0.00000000E+00
  0.00000000E+00  0.00000000E+00  0.00000000E+00  0.00000000E+00  0.00000000E+00
  0.00000000E+00  0.00000000E+00  0.00000000E+00  0.00000000E+00  0.00000000E+00
  0.00000000E+00  0.00000000E+00  0.00000000E+00  0.00000000E+00  0.00000000E+00
  0.00000000E+00  0.00000000E+00  0.00000000E+00  0.00000000E+00  0.00000000E+00
  0.00000000E+00  0.00000000E+00  0.00000000E+00  0.00000000E+00  0.00000000E+00
  0.00000000E+00  0.00000000E+00  0.00000000E+00  0.00000000E+00  0.00000000E+00
  0.00000000E+00  0.00000000E+00  0.00000000E+00  0.00000000E+00  0.00000000E+00
  0.00000000E+00  0.00000000E+00  0.00000000E+00  0.00000000E+00  0.00000000E+00
  0.00000000E+00  0.00000000E+00  0.00000000E+00  0.00000000E+00  0.00000000E+00
  0.00000000E+00  0.00000000E+00  0.00000000E+00  0.00000000E+00  0.00000000E+00
  0.00000000E+00  0.00000000E+00  0.00000000E+00  0.00000000E+00  0.00000000E+00
  0.00000000E+00  0.00000000E+00  0.00000000E+00  0.00000000E+00  0.00000000E+00
  0.00000000E+00  0.00000000E+00  0.00000000E+00  0.00000000E+00  0.00000000E+00
  0.00000000E+00  0.00000000E+00  0.00000000E+00  0.00000000E+00  0.00000000E+00
  0.00000000E+00  0.00000000E+00  0.00000000E+00  0.00000000E+00  0.00000000E+00
  0.00000000E+00  0.00000000E+00  0.00000000E+00  0.00000000E+00  0.00000000E+00
  0.00000000E+00  0.00000000E+00  0.00000000E+00  0.00000000E+00  0.00000000E+00
  0.00000000E+00  0.00000000E+00  0.00000000E+00  0.00000000E+00  0.00000000E+00
  0.00000000E+00  0.00000000E+00  0.00000000E+00  0.00000000E+00  0.00000000E+00
  0.00000000E+00  0.00000000E+00  0.00000000E+00  0.00000000E+00  0.00000000E+00
  0.00000000E+00  0.00000000E+00  0.00000000E+00  0.00000000E+00  0.00000000E+00
  0.00000000E+00  0.00000000E+00  0.00000000E+00  0.00000000E+00  0.00000000E+00
  0.00000000E+00  0.00000000E+00  0.00000000E+00  0.00000000E+00  0.00000000E+00
  0.00000000E+00  0.00000000E+00  0.00000000E+00  0.00000000E+00  0.00000000E+00
  0.00000000E+00  0.00000000E+00  0.00000000E+00  0.00000000E+00  0.00000000E+00
  0.00000000E+00  0.00000000E+00  0.00000000E+00  0.00000000E+00  0.00000000E+00
  0.00000000E+00  0.00000000E+00  0.00000000E+00  0.00000000E+00  0.00000000E+00
  0.00000000E+00  0.00000000E+00  0.00000000E+00  0.00000000E+00  0.00000000E+00
  0.00000000E+00  0.00000000E+00  0.00000000E+00  0.00000000E+00  0.00000000E+00
  0.00000000E+00  0.00000000E+00  0.00000000E+00  0.00000000E+00  0.00000000E+00