atomref-proatoms Po_q0_mult3_nist x2c-QZVPall
GAUSSIAN             86 MOL ORBITALS    387 PRIMITIVES        1 NUCLEI
  Po   1    (CENTRE  1)   0.00000000  0.00000000  0.00000000  CHARGE = 84.0
CENTRE ASSIGNMENTS    1  1  1  1  1  1  1  1  1  1  1  1  1  1  1  1  1  1  1  1
CENTRE ASSIGNMENTS    1  1  1  1  1  1  1  1  1  1  1  1  1  1  1  1  1  1  1  1
CENTRE ASSIGNMENTS    1  1  1  1  1  1  1  1  1  1  1  1  1  1  1  1  1  1  1  1
CENTRE ASSIGNMENTS    1  1  1  1  1  1  1  1  1  1  1  1  1  1  1  1  1  1  1  1
CENTRE ASSIGNMENTS    1  1  1  1  1  1  1  1  1  1  1  1  1  1  1  1  1  1  1  1
CENTRE ASSIGNMENTS    1  1  1  1  1  1  1  1  1  1  1  1  1  1  1  1  1  1  1  1
CENTRE ASSIGNMENTS    1  1  1  1  1  1  1  1  1  1  1  1  1  1  1  1  1  1  1  1
CENTRE ASSIGNMENTS    1  1  1  1  1  1  1  1  1  1  1  1  1  1  1  1  1  1  1  1
CENTRE ASSIGNMENTS    1  1  1  1  1  1  1  1  1  1  1  1  1  1  1  1  1  1  1  1
CENTRE ASSIGNMENTS    1  1  1  1  1  1  1  1  1  1  1  1  1  1  1  1  1  1  1  1
CENTRE ASSIGNMENTS    1  1  1  1  1  1  1  1  1  1  1  1  1  1  1  1  1  1  1  1
CENTRE ASSIGNMENTS    1  1  1  1  1  1  1  1  1  1  1  1  1  1  1  1  1  1  1  1
CENTRE ASSIGNMENTS    1  1  1  1  1  1  1  1  1  1  1  1  1  1  1  1  1  1  1  1
CENTRE ASSIGNMENTS    1  1  1  1  1  1  1  1  1  1  1  1  1  1  1  1  1  1  1  1
CENTRE ASSIGNMENTS    1  1  1  1  1  1  1  1  1  1  1  1  1  1  1  1  1  1  1  1
CENTRE ASSIGNMENTS    1  1  1  1  1  1  1  1  1  1  1  1  1  1  1  1  1  1  1  1
CENTRE ASSIGNMENTS    1  1  1  1  1  1  1  1  1  1  1  1  1  1  1  1  1  1  1  1
CENTRE ASSIGNMENTS    1  1  1  1  1  1  1  1  1  1  1  1  1  1  1  1  1  1  1  1
CENTRE ASSIGNMENTS    1  1  1  1  1  1  1  1  1  1  1  1  1  1  1  1  1  1  1  1
CENTRE ASSIGNMENTS    1  1  1  1  1  1  1
TYPE ASSIGNMENTS      1  1  1  1  1  1  1  1  1  1  1  1  1  1  1  1  1  1  1  1
TYPE ASSIGNMENTS      1  1  1  1  1  1  1  1  1  1  2  3  4  2  3  4  2  3  4  2
TYPE ASSIGNMENTS      3  4  2  3  4  2  3  4  2  3  4  2  3  4  2  3  4  2  3  4
TYPE ASSIGNMENTS      2  3  4  2  3  4  2  3  4  2  3  4  2  3  4  2  3  4  2  3
TYPE ASSIGNMENTS      4  2  3  4  2  3  4  2  3  4  2  3  4  2  3  4  2  3  4  2
TYPE ASSIGNMENTS      3  4  2  3  4  2  3  4  2  3  4  2  3  4  2  3  4  2  3  4
TYPE ASSIGNMENTS      2  3  4  2  3  4  2  3  4  2  3  4  5  8  9  6 10  7  5  8
TYPE ASSIGNMENTS      9  6 10  7  5  8  9  6 10  7  5  8  9  6 10  7  5  8  9  6
TYPE ASSIGNMENTS     10  7  5  8  9  6 10  7  5  8  9  6 10  7  5  8  9  6 10  7
TYPE ASSIGNMENTS      5  8  9  6 10  7  5  8  9  6 10  7  5  8  9  6 10  7  5  8
TYPE ASSIGNMENTS      9  6 10  7  5  8  9  6 10  7  5  8  9  6 10  7  5  8  9  6
TYPE ASSIGNMENTS     10  7  5  8  9  6 10  7  5  8  9  6 10  7  5  8  9  6 10  7
TYPE ASSIGNMENTS      5  8  9  6 10  7  5  8  9  6 10  7 11 14 15 17 20 18 12 16
TYPE ASSIGNMENTS     19 13 11 14 15 17 20 18 12 16 19 13 11 14 15 17 20 18 12 16
TYPE ASSIGNMENTS     19 13 11 14 15 17 20 18 12 16 19 13 11 14 15 17 20 18 12 16
TYPE ASSIGNMENTS     19 13 11 14 15 17 20 18 12 16 19 13 11 14 15 17 20 18 12 16
TYPE ASSIGNMENTS     19 13 11 14 15 17 20 18 12 16 19 13 11 14 15 17 20 18 12 16
TYPE ASSIGNMENTS     19 13 11 14 15 17 20 18 12 16 19 13 11 14 15 17 20 18 12 16
TYPE ASSIGNMENTS     19 13 11 14 15 17 20 18 12 16 19 13 21 24 25 30 33 31 26 34
TYPE ASSIGNMENTS     35 28 22 27 32 29 23
EXPONENTS  6.4675282E+07 1.7596543E+07 5.4033312E+06 1.7128664E+06 5.7953879E+05
EXPONENTS  2.0706192E+05 7.8153512E+04 3.1448209E+04 1.3423883E+04 6.1352145E+03
EXPONENTS  2.9606871E+03 1.4609875E+03 7.7124700E+04 1.6702810E+04 4.8792266E+03
EXPONENTS  1.7626837E+03 7.1859706E+02 3.3554894E+02 1.6166402E+02 7.6741887E+01
EXPONENTS  4.0892131E+01 2.0978005E+01 9.8776921E+00 4.8749639E+00 2.3360209E+00
EXPONENTS  1.0431136E+00 5.2958065E-01 2.5728763E-01 1.3194397E-01 6.1592641E-02
EXPONENTS  3.5200000E+02 3.5200000E+02 3.5200000E+02 1.6083710E+07 1.6083710E+07
EXPONENTS  1.6083710E+07 3.0491800E+06 3.0491800E+06 3.0491800E+06 7.4528907E+05
EXPONENTS  7.4528907E+05 7.4528907E+05 2.1310081E+05 2.1310081E+05 2.1310081E+05
EXPONENTS  6.8797055E+04 6.8797055E+04 6.8797055E+04 2.4326077E+04 2.4326077E+04
EXPONENTS  2.4326077E+04 9.1546240E+03 9.1546240E+03 9.1546240E+03 3.6560065E+03
EXPONENTS  3.6560065E+03 3.6560065E+03 1.5265645E+03 1.5265645E+03 1.5265645E+03
EXPONENTS  6.7538190E+02 6.7538190E+02 6.7538190E+02 3.1808448E+02 3.1808448E+02
EXPONENTS  3.1808448E+02 1.5776408E+02 1.5776408E+02 1.5776408E+02 8.0967220E+01
EXPONENTS  8.0967220E+01 8.0967220E+01 2.4787610E+03 2.4787610E+03 2.4787610E+03
EXPONENTS  8.4539015E+02 8.4539015E+02 8.4539015E+02 3.7630153E+02 3.7630153E+02
EXPONENTS  3.7630153E+02 9.3902925E+01 9.3902925E+01 9.3902925E+01 4.8851313E+01
EXPONENTS  4.8851313E+01 4.8851313E+01 2.5083853E+01 2.5083853E+01 2.5083853E+01
EXPONENTS  1.0931003E+01 1.0931003E+01 1.0931003E+01 1.2656237E+02 1.2656237E+02
EXPONENTS  1.2656237E+02 5.2363850E+01 5.2363850E+01 5.2363850E+01 1.5090409E+01
EXPONENTS  1.5090409E+01 1.5090409E+01 8.2329194E+00 8.2329194E+00 8.2329194E+00
EXPONENTS  4.2781666E+00 4.2781666E+00 4.2781666E+00 8.4693159E+00 8.4693159E+00
EXPONENTS  8.4693159E+00 2.6392240E+00 2.6392240E+00 2.6392240E+00 1.3235374E+00
EXPONENTS  1.3235374E+00 1.3235374E+00 1.5453038E+00 1.5453038E+00 1.5453038E+00
EXPONENTS  5.2620840E-01 5.2620840E-01 5.2620840E-01 2.4653902E-01 2.4653902E-01
EXPONENTS  2.4653902E-01 9.8794595E-02 9.8794595E-02 9.8794595E-02 3.7257608E-02
EXPONENTS  3.7257608E-02 3.7257608E-02 8.0439127E+03 8.0439127E+03 8.0439127E+03
EXPONENTS  8.0439127E+03 8.0439127E+03 8.0439127E+03 2.3852940E+03 2.3852940E+03
EXPONENTS  2.3852940E+03 2.3852940E+03 2.3852940E+03 2.3852940E+03 9.3310148E+02
EXPONENTS  9.3310148E+02 9.3310148E+02 9.3310148E+02 9.3310148E+02 9.3310148E+02
EXPONENTS  4.1734689E+02 4.1734689E+02 4.1734689E+02 4.1734689E+02 4.1734689E+02
EXPONENTS  4.1734689E+02 2.0135137E+02 2.0135137E+02 2.0135137E+02 2.0135137E+02
EXPONENTS  2.0135137E+02 2.0135137E+02 1.0224249E+02 1.0224249E+02 1.0224249E+02
EXPONENTS  1.0224249E+02 1.0224249E+02 1.0224249E+02 5.2952128E+01 5.2952128E+01
EXPONENTS  5.2952128E+01 5.2952128E+01 5.2952128E+01 5.2952128E+01 2.7919732E+01
EXPONENTS  2.7919732E+01 2.7919732E+01 2.7919732E+01 2.7919732E+01 2.7919732E+01
EXPONENTS  5.5200000E+01 5.5200000E+01 5.5200000E+01 5.5200000E+01 5.5200000E+01
EXPONENTS  5.5200000E+01 4.2554372E+02 4.2554372E+02 4.2554372E+02 4.2554372E+02
EXPONENTS  4.2554372E+02 4.2554372E+02 1.5403263E+02 1.5403263E+02 1.5403263E+02
EXPONENTS  1.5403263E+02 1.5403263E+02 1.5403263E+02 3.3717145E+01 3.3717145E+01
EXPONENTS  3.3717145E+01 3.3717145E+01 3.3717145E+01 3.3717145E+01 1.4699887E+01
EXPONENTS  1.4699887E+01 1.4699887E+01 1.4699887E+01 1.4699887E+01 1.4699887E+01
EXPONENTS  2.0899084E+01 2.0899084E+01 2.0899084E+01 2.0899084E+01 2.0899084E+01
EXPONENTS  2.0899084E+01 7.8959684E+00 7.8959684E+00 7.8959684E+00 7.8959684E+00
EXPONENTS  7.8959684E+00 7.8959684E+00 3.9742612E+00 3.9742612E+00 3.9742612E+00
EXPONENTS  3.9742612E+00 3.9742612E+00 3.9742612E+00 1.9896906E+00 1.9896906E+00
EXPONENTS  1.9896906E+00 1.9896906E+00 1.9896906E+00 1.9896906E+00 9.4416294E-01
EXPONENTS  9.4416294E-01 9.4416294E-01 9.4416294E-01 9.4416294E-01 9.4416294E-01
EXPONENTS  4.1175187E-01 4.1175187E-01 4.1175187E-01 4.1175187E-01 4.1175187E-01
EXPONENTS  4.1175187E-01 1.3985738E-01 1.3985738E-01 1.3985738E-01 1.3985738E-01
EXPONENTS  1.3985738E-01 1.3985738E-01 6.3901629E+02 6.3901629E+02 6.3901629E+02
EXPONENTS  6.3901629E+02 6.3901629E+02 6.3901629E+02 6.3901629E+02 6.3901629E+02
EXPONENTS  6.3901629E+02 6.3901629E+02 2.2250743E+02 2.2250743E+02 2.2250743E+02
EXPONENTS  2.2250743E+02 2.2250743E+02 2.2250743E+02 2.2250743E+02 2.2250743E+02
EXPONENTS  2.2250743E+02 2.2250743E+02 9.6049716E+01 9.6049716E+01 9.6049716E+01
EXPONENTS  9.6049716E+01 9.6049716E+01 9.6049716E+01 9.6049716E+01 9.6049716E+01
EXPONENTS  9.6049716E+01 9.6049716E+01 4.5260501E+01 4.5260501E+01 4.5260501E+01
EXPONENTS  4.5260501E+01 4.5260501E+01 4.5260501E+01 4.5260501E+01 4.5260501E+01
EXPONENTS  4.5260501E+01 4.5260501E+01 2.2373533E+01 2.2373533E+01 2.2373533E+01
EXPONENTS  2.2373533E+01 2.2373533E+01 2.2373533E+01 2.2373533E+01 2.2373533E+01
EXPONENTS  2.2373533E+01 2.2373533E+01 1.1127093E+01 1.1127093E+01 1.1127093E+01
EXPONENTS  1.1127093E+01 1.1127093E+01 1.1127093E+01 1.1127093E+01 1.1127093E+01
EXPONENTS  1.1127093E+01 1.1127093E+01 5.5913344E+00 5.5913344E+00 5.5913344E+00
EXPONENTS  5.5913344E+00 5.5913344E+00 5.5913344E+00 5.5913344E+00 5.5913344E+00
EXPONENTS  5.5913344E+00 5.5913344E+00 1.1300000E+01 1.1300000E+01 1.1300000E+01
EXPONENTS  1.1300000E+01 1.1300000E+01 1.1300000E+01 1.1300000E+01 1.1300000E+01
EXPONENTS  1.1300000E+01 1.1300000E+01 2.8273804E+00 2.8273804E+00 2.8273804E+00
EXPONENTS  2.8273804E+00 2.8273804E+00 2.8273804E+00 2.8273804E+00 2.8273804E+00
EXPONENTS  2.8273804E+00 2.8273804E+00 1.3156731E+00 1.3156731E+00 1.3156731E+00
EXPONENTS  1.3156731E+00 1.3156731E+00 1.3156731E+00 1.3156731E+00 1.3156731E+00
EXPONENTS  1.3156731E+00 1.3156731E+00 4.8940000E-01 4.8940000E-01 4.8940000E-01
EXPONENTS  4.8940000E-01 4.8940000E-01 4.8940000E-01 4.8940000E-01 4.8940000E-01
EXPONENTS  4.8940000E-01 4.8940000E-01 2.0020000E-01 2.0020000E-01 2.0020000E-01
EXPONENTS  2.0020000E-01 2.0020000E-01 2.0020000E-01 2.0020000E-01 2.0020000E-01
EXPONENTS  2.0020000E-01 2.0020000E-01 4.0740000E-01 4.0740000E-01 4.0740000E-01
EXPONENTS  4.0740000E-01 4.0740000E-01 4.0740000E-01 4.0740000E-01 4.0740000E-01
EXPONENTS  4.0740000E-01 4.0740000E-01 4.0740000E-01 4.0740000E-01 4.0740000E-01
EXPONENTS  4.0740000E-01 4.0740000E-01
MO    1                     OCC NO =   1.00000000 ORB. ENERGY = -3421.63719863
  3.37367301E+02  3.18258217E+02  2.70545055E+02  2.24070198E+02  1.86097986E+02
  1.60471779E+02  1.40819052E+02  1.27152630E+02  1.13875015E+02  9.66264729E+01
  7.52079846E+01  4.65942480E+01 -8.18417872E-02 -1.69146397E-01 -2.89287686E-01
 -3.20965234E-01  1.74467979E+01  1.30665856E+00  1.99041719E-01 -1.19461604E-01
  6.60261404E-02 -2.63144580E-02  9.34771192E-03 -3.66461812E-03  1.28705472E-03
 -4.77938005E-04  2.07430367E-04 -7.02434239E-05  1.93608364E-05 -2.46810659E-06
  0.00000000E+00  0.00000000E+00  0.00000000E+00  0.00000000E+00  0.00000000E+00
  0.00000000E+00  0.00000000E+00  0.00000000E+00  0.00000000E+00  0.00000000E+00
  0.00000000E+00  0.00000000E+00  0.00000000E+00  0.00000000E+00  0.00000000E+00
  0.00000000E+00  0.00000000E+00  0.00000000E+00  0.00000000E+00  0.00000000E+00
  0.00000000E+00  0.00000000E+00  0.00000000E+00  0.00000000E+00  0.00000000E+00
  0.00000000E+00  0.00000000E+00  0.00000000E+00  0.00000000E+00  0.00000000E+00
  0.00000000E+00  0.00000000E+00  0.00000000E+00  0.00000000E+00  0.00000000E+00
  0.00000000E+00  0.00000000E+00  0.00000000E+00  0.00000000E+00  0.00000000E+00
  0.00000000E+00  0.00000000E+00  0.00000000E+00  0.00000000E+00  0.00000000E+00
  0.00000000E+00  0.00000000E+00  0.00000000E+00  0.00000000E+00  0.00000000E+00
  0.00000000E+00  0.00000000E+00  0.00000000E+00  0.00000000E+00  0.00000000E+00
  0.00000000E+00  0.00000000E+00  0.00000000E+00  0.00000000E+00  0.00000000E+00
  0.00000000E+00  0.00000000E+00  0.00000000E+00  0.00000000E+00  0.00000000E+00
  0.00000000E+00  0.00000000E+00  0.00000000E+00  0.00000000E+00  0.00000000E+00
  0.00000000E+00  0.00000000E+00  0.00000000E+00  0.00000000E+00  0.00000000E+00
  0.00000000E+00  0.00000000E+00  0.00000000E+00  0.00000000E+00  0.00000000E+00
  0.00000000E+00  0.00000000E+00  0.00000000E+00  0.00000000E+00  0.00000000E+00
  0.00000000E+00  0.00000000E+00  0.00000000E+00  0.00000000E+00  0.00000000E+00
  0.00000000E+00  0.00000000E+00  0.00000000E+00  0.00000000E+00  0.00000000E+00
  0.00000000E+00  0.00000000E+00  0.00000000E+00  0.00000000E+00  0.00000000E+00
  0.00000000E+00  0.00000000E+00  0.00000000E+00  0.00000000E+00  0.00000000E+00
  0.00000000E+00  0.00000000E+00  0.00000000E+00  0.00000000E+00  0.00000000E+00
  0.00000000E+00  0.00000000E+00  0.00000000E+00  0.00000000E+00  0.00000000E+00
  0.00000000E+00  0.00000000E+00  0.00000000E+00  0.00000000E+00  0.00000000E+00
  0.00000000E+00  0.00000000E+00  0.00000000E+00  0.00000000E+00  0.00000000E+00
  0.00000000E+00  0.00000000E+00  0.00000000E+00  0.00000000E+00  0.00000000E+00
  0.00000000E+00  0.00000000E+00  0.00000000E+00  0.00000000E+00  0.00000000E+00
  0.00000000E+00  0.00000000E+00  0.00000000E+00  0.00000000E+00  0.00000000E+00
  0.00000000E+00  0.00000000E+00  0.00000000E+00  0.00000000E+00  0.00000000E+00
  0.00000000E+00  0.00000000E+00  0.00000000E+00  0.00000000E+00  0.00000000E+00
  0.00000000E+00  0.00000000E+00  0.00000000E+00  0.00000000E+00  0.00000000E+00
  0.00000000E+00  0.00000000E+00  0.00000000E+00  0.00000000E+00  0.00000000E+00
  0.00000000E+00  0.00000000E+00  0.00000000E+00  0.00000000E+00  0.00000000E+00
  0.00000000E+00  0.00000000E+00  0.00000000E+00  0.00000000E+00  0.00000000E+00
  0.00000000E+00  0.00000000E+00  0.00000000E+00  0.00000000E+00  0.00000000E+00
  0.00000000E+00  0.00000000E+00  0.00000000E+00  0.00000000E+00  0.00000000E+00
  0.00000000E+00  0.00000000E+00  0.00000000E+00  0.00000000E+00  0.00000000E+00
  0.00000000E+00  0.00000000E+00  0.00000000E+00  0.00000000E+00  0.00000000E+00
  0.00000000E+00  0.00000000E+00  0.00000000E+00  0.00000000E+00  0.00000000E+00
  0.00000000E+00  0.00000000E+00  0.00000000E+00  0.00000000E+00  0.00000000E+00
  0.00000000E+00  0.00000000E+00  0.00000000E+00  0.00000000E+00  0.00000000E+00
  0.00000000E+00  0.00000000E+00  0.00000000E+00  0.00000000E+00  0.00000000E+00
  0.00000000E+00  0.00000000E+00  0.00000000E+00  0.00000000E+00  0.00000000E+00
  0.00000000E+00  0.00000000E+00  0.00000000E+00  0.00000000E+00  0.00000000E+00
  0.00000000E+00  0.00000000E+00  0.00000000E+00  0.00000000E+00  0.00000000E+00
  0.00000000E+00  0.00000000E+00  0.00000000E+00  0.00000000E+00  0.00000000E+00
  0.00000000E+00  0.00000000E+00  0.00000000E+00  0.00000000E+00  0.00000000E+00
  0.00000000E+00  0.00000000E+00  0.00000000E+00  0.00000000E+00  0.00000000E+00
  0.00000000E+00  0.00000000E+00  0.00000000E+00  0.00000000E+00  0.00000000E+00
  0.00000000E+00  0.00000000E+00  0.00000000E+00  0.00000000E+00  0.00000000E+00
  0.00000000E+00  0.00000000E+00  0.00000000E+00  0.00000000E+00  0.00000000E+00
  0.00000000E+00  0.00000000E+00  0.00000000E+00  0.00000000E+00  0.00000000E+00
  0.00000000E+00  0.00000000E+00  0.00000000E+00  0.00000000E+00  0.00000000E+00
  0.00000000E+00  0.00000000E+00  0.00000000E+00  0.00000000E+00  0.00000000E+00
  0.00000000E+00  0.00000000E+00  0.00000000E+00  0.00000000E+00  0.00000000E+00
  0.00000000E+00  0.00000000E+00  0.00000000E+00  0.00000000E+00  0.00000000E+00
  0.00000000E+00  0.00000000E+00  0.00000000E+00  0.00000000E+00  0.00000000E+00
  0.00000000E+00  0.00000000E+00  0.00000000E+00  0.00000000E+00  0.00000000E+00
  0.00000000E+00  0.00000000E+00  0.00000000E+00  0.00000000E+00  0.00000000E+00
  0.00000000E+00  0.00000000E+00  0.00000000E+00  0.00000000E+00  0.00000000E+00
  0.00000000E+00  0.00000000E+00  0.00000000E+00  0.00000000E+00  0.00000000E+00
  0.00000000E+00  0.00000000E+00  0.00000000E+00  0.00000000E+00  0.00000000E+00
  0.00000000E+00  0.00000000E+00  0.00000000E+00  0.00000000E+00  0.00000000E+00
  0.00000000E+00  0.00000000E+00  0.00000000E+00  0.00000000E+00  0.00000000E+00
  0.00000000E+00  0.00000000E+00  0.00000000E+00  0.00000000E+00  0.00000000E+00
  0.00000000E+00  0.00000000E+00  0.00000000E+00  0.00000000E+00  0.00000000E+00
  0.00000000E+00  0.00000000E+00  0.00000000E+00  0.00000000E+00  0.00000000E+00
  0.00000000E+00  0.00000000E+00  0.00000000E+00  0.00000000E+00  0.00000000E+00
  0.00000000E+00  0.00000000E+00  0.00000000E+00  0.00000000E+00  0.00000000E+00
  0.00000000E+00  0.00000000E+00  0.00000000E+00  0.00000000E+00  0.00000000E+00
  0.00000000E+00  0.00000000E+00  0.00000000E+00  0.00000000E+00  0.00000000E+00
  0.00000000E+00  0.00000000E+00
MO    2                     OCC NO =   1.00000000 ORB. ENERGY = -618.88096440
 -1.37186133E+02 -1.29415667E+02 -1.10013714E+02 -9.11153034E+01 -7.56743853E+01
 -6.52538130E+01 -5.72622809E+01 -5.17050039E+01 -4.63058302E+01 -3.92919294E+01
 -3.05823728E+01 -1.89469598E+01 -3.27427485E+00 -6.76710289E+00 -1.15736402E+01
 -1.28409756E+01 -7.45840540E+00  1.94765056E+01  1.88719506E+01  4.26668110E+00
 -1.74793452E-01  9.07526376E-02 -2.90476225E-02  1.09169509E-02 -3.78421947E-03
  1.40220944E-03 -6.08271152E-04  2.06066885E-04 -5.68326042E-05  7.24745809E-06
  0.00000000E+00  0.00000000E+00  0.00000000E+00  0.00000000E+00  0.00000000E+00
  0.00000000E+00  0.00000000E+00  0.00000000E+00  0.00000000E+00  0.00000000E+00
  0.00000000E+00  0.00000000E+00  0.00000000E+00  0.00000000E+00  0.00000000E+00
  0.00000000E+00  0.00000000E+00  0.00000000E+00  0.00000000E+00  0.00000000E+00
  0.00000000E+00  0.00000000E+00  0.00000000E+00  0.00000000E+00  0.00000000E+00
  0.00000000E+00  0.00000000E+00  0.00000000E+00  0.00000000E+00  0.00000000E+00
  0.00000000E+00  0.00000000E+00  0.00000000E+00  0.00000000E+00  0.00000000E+00
  0.00000000E+00  0.00000000E+00  0.00000000E+00  0.00000000E+00  0.00000000E+00
  0.00000000E+00  0.00000000E+00  0.00000000E+00  0.00000000E+00  0.00000000E+00
  0.00000000E+00  0.00000000E+00  0.00000000E+00  0.00000000E+00  0.00000000E+00
  0.00000000E+00  0.00000000E+00  0.00000000E+00  0.00000000E+00  0.00000000E+00
  0.00000000E+00  0.00000000E+00  0.00000000E+00  0.00000000E+00  0.00000000E+00
  0.00000000E+00  0.00000000E+00  0.00000000E+00  0.00000000E+00  0.00000000E+00
  0.00000000E+00  0.00000000E+00  0.00000000E+00  0.00000000E+00  0.00000000E+00
  0.00000000E+00  0.00000000E+00  0.00000000E+00  0.00000000E+00  0.00000000E+00
  0.00000000E+00  0.00000000E+00  0.00000000E+00  0.00000000E+00  0.00000000E+00
  0.00000000E+00  0.00000000E+00  0.00000000E+00  0.00000000E+00  0.00000000E+00
  0.00000000E+00  0.00000000E+00  0.00000000E+00  0.00000000E+00  0.00000000E+00
  0.00000000E+00  0.00000000E+00  0.00000000E+00  0.00000000E+00  0.00000000E+00
  0.00000000E+00  0.00000000E+00  0.00000000E+00  0.00000000E+00  0.00000000E+00
  0.00000000E+00  0.00000000E+00  0.00000000E+00  0.00000000E+00  0.00000000E+00
  0.00000000E+00  0.00000000E+00  0.00000000E+00  0.00000000E+00  0.00000000E+00
  0.00000000E+00  0.00000000E+00  0.00000000E+00  0.00000000E+00  0.00000000E+00
  0.00000000E+00  0.00000000E+00  0.00000000E+00  0.00000000E+00  0.00000000E+00
  0.00000000E+00  0.00000000E+00  0.00000000E+00  0.00000000E+00  0.00000000E+00
  0.00000000E+00  0.00000000E+00  0.00000000E+00  0.00000000E+00  0.00000000E+00
  0.00000000E+00  0.00000000E+00  0.00000000E+00  0.00000000E+00  0.00000000E+00
  0.00000000E+00  0.00000000E+00  0.00000000E+00  0.00000000E+00  0.00000000E+00
  0.00000000E+00  0.00000000E+00  0.00000000E+00  0.00000000E+00  0.00000000E+00
  0.00000000E+00  0.00000000E+00  0.00000000E+00  0.00000000E+00  0.00000000E+00
  0.00000000E+00  0.00000000E+00  0.00000000E+00  0.00000000E+00  0.00000000E+00
  0.00000000E+00  0.00000000E+00  0.00000000E+00  0.00000000E+00  0.00000000E+00
  0.00000000E+00  0.00000000E+00  0.00000000E+00  0.00000000E+00  0.00000000E+00
  0.00000000E+00  0.00000000E+00  0.00000000E+00  0.00000000E+00  0.00000000E+00
  0.00000000E+00  0.00000000E+00  0.00000000E+00  0.00000000E+00  0.00000000E+00
  0.00000000E+00  0.00000000E+00  0.00000000E+00  0.00000000E+00  0.00000000E+00
  0.00000000E+00  0.00000000E+00  0.00000000E+00  0.00000000E+00  0.00000000E+00
  0.00000000E+00  0.00000000E+00  0.00000000E+00  0.00000000E+00  0.00000000E+00
  0.00000000E+00  0.00000000E+00  0.00000000E+00  0.00000000E+00  0.00000000E+00
  0.00000000E+00  0.00000000E+00  0.00000000E+00  0.00000000E+00  0.00000000E+00
  0.00000000E+00  0.00000000E+00  0.00000000E+00  0.00000000E+00  0.00000000E+00
  0.00000000E+00  0.00000000E+00  0.00000000E+00  0.00000000E+00  0.00000000E+00
  0.00000000E+00  0.00000000E+00  0.00000000E+00  0.00000000E+00  0.00000000E+00
  0.00000000E+00  0.00000000E+00  0.00000000E+00  0.00000000E+00  0.00000000E+00
  0.00000000E+00  0.00000000E+00  0.00000000E+00  0.00000000E+00  0.00000000E+00
  0.00000000E+00  0.00000000E+00  0.00000000E+00  0.00000000E+00  0.00000000E+00
  0.00000000E+00  0.00000000E+00  0.00000000E+00  0.00000000E+00  0.00000000E+00
  0.00000000E+00  0.00000000E+00  0.00000000E+00  0.00000000E+00  0.00000000E+00
  0.00000000E+00  0.00000000E+00  0.00000000E+00  0.00000000E+00  0.00000000E+00
  0.00000000E+00  0.00000000E+00  0.00000000E+00  0.00000000E+00  0.00000000E+00
  0.00000000E+00  0.00000000E+00  0.00000000E+00  0.00000000E+00  0.00000000E+00
  0.00000000E+00  0.00000000E+00  0.00000000E+00  0.00000000E+00  0.00000000E+00
  0.00000000E+00  0.00000000E+00  0.00000000E+00  0.00000000E+00  0.00000000E+00
  0.00000000E+00  0.00000000E+00  0.00000000E+00  0.00000000E+00  0.00000000E+00
  0.00000000E+00  0.00000000E+00  0.00000000E+00  0.00000000E+00  0.00000000E+00
  0.00000000E+00  0.00000000E+00  0.00000000E+00  0.00000000E+00  0.00000000E+00
  0.00000000E+00  0.00000000E+00  0.00000000E+00  0.00000000E+00  0.00000000E+00
  0.00000000E+00  0.00000000E+00  0.00000000E+00  0.00000000E+00  0.00000000E+00
  0.00000000E+00  0.00000000E+00  0.00000000E+00  0.00000000E+00  0.00000000E+00
  0.00000000E+00  0.00000000E+00  0.00000000E+00  0.00000000E+00  0.00000000E+00
  0.00000000E+00  0.00000000E+00  0.00000000E+00  0.00000000E+00  0.00000000E+00
  0.00000000E+00  0.00000000E+00  0.00000000E+00  0.00000000E+00  0.00000000E+00
  0.00000000E+00  0.00000000E+00  0.00000000E+00  0.00000000E+00  0.00000000E+00
  0.00000000E+00  0.00000000E+00  0.00000000E+00  0.00000000E+00  0.00000000E+00
  0.00000000E+00  0.00000000E+00  0.00000000E+00  0.00000000E+00  0.00000000E+00
  0.00000000E+00  0.00000000E+00  0.00000000E+00  0.00000000E+00  0.00000000E+00
  0.00000000E+00  0.00000000E+00  0.00000000E+00  0.00000000E+00  0.00000000E+00
  0.00000000E+00  0.00000000E+00  0.00000000E+00  0.00000000E+00  0.00000000E+00
  0.00000000E+00  0.00000000E+00  0.00000000E+00  0.00000000E+00  0.00000000E+00
  0.00000000E+00  0.00000000E+00  0.00000000E+00  0.00000000E+00  0.00000000E+00
  0.00000000E+00  0.00000000E+00  0.00000000E+00  0.00000000E+00  0.00000000E+00
  0.00000000E+00  0.00000000E+00
MO    3                     OCC NO =   1.00000000 ORB. ENERGY = -150.92998321
  6.62680059E+01  6.25144683E+01  5.31423207E+01  4.40134096E+01  3.65546466E+01
  3.15209706E+01  2.76606468E+01  2.49761943E+01  2.23681137E+01  1.89800365E+01
  1.47728697E+01  9.15236270E+00  1.94125566E+00  4.01208736E+00  6.86179244E+00
  7.61317168E+00  3.47122793E+00 -1.57530324E+01 -2.00411880E+01 -1.92214375E+00
  9.81936915E+00  3.27609198E+00  1.25250057E-01 -7.01952909E-03  2.03446480E-03
 -7.70108291E-04  3.32334792E-04 -1.13197658E-04  3.14634986E-05 -4.01489568E-06
  0.00000000E+00  0.00000000E+00  0.00000000E+00  0.00000000E+00  0.00000000E+00
  0.00000000E+00  0.00000000E+00  0.00000000E+00  0.00000000E+00  0.00000000E+00
  0.00000000E+00  0.00000000E+00  0.00000000E+00  0.00000000E+00  0.00000000E+00
  0.00000000E+00  0.00000000E+00  0.00000000E+00  0.00000000E+00  0.00000000E+00
  0.00000000E+00  0.00000000E+00  0.00000000E+00  0.00000000E+00  0.00000000E+00
  0.00000000E+00  0.00000000E+00  0.00000000E+00  0.00000000E+00  0.00000000E+00
  0.00000000E+00  0.00000000E+00  0.00000000E+00  0.00000000E+00  0.00000000E+00
  0.00000000E+00  0.00000000E+00  0.00000000E+00  0.00000000E+00  0.00000000E+00
  0.00000000E+00  0.00000000E+00  0.00000000E+00  0.00000000E+00  0.00000000E+00
  0.00000000E+00  0.00000000E+00  0.00000000E+00  0.00000000E+00  0.00000000E+00
  0.00000000E+00  0.00000000E+00  0.00000000E+00  0.00000000E+00  0.00000000E+00
  0.00000000E+00  0.00000000E+00  0.00000000E+00  0.00000000E+00  0.00000000E+00
  0.00000000E+00  0.00000000E+00  0.00000000E+00  0.00000000E+00  0.00000000E+00
  0.00000000E+00  0.00000000E+00  0.00000000E+00  0.00000000E+00  0.00000000E+00
  0.00000000E+00  0.00000000E+00  0.00000000E+00  0.00000000E+00  0.00000000E+00
  0.00000000E+00  0.00000000E+00  0.00000000E+00  0.00000000E+00  0.00000000E+00
  0.00000000E+00  0.00000000E+00  0.00000000E+00  0.00000000E+00  0.00000000E+00
  0.00000000E+00  0.00000000E+00  0.00000000E+00  0.00000000E+00  0.00000000E+00
  0.00000000E+00  0.00000000E+00  0.00000000E+00  0.00000000E+00  0.00000000E+00
  0.00000000E+00  0.00000000E+00  0.00000000E+00  0.00000000E+00  0.00000000E+00
  0.00000000E+00  0.00000000E+00  0.00000000E+00  0.00000000E+00  0.00000000E+00
  0.00000000E+00  0.00000000E+00  0.00000000E+00  0.00000000E+00  0.00000000E+00
  0.00000000E+00  0.00000000E+00  0.00000000E+00  0.00000000E+00  0.00000000E+00
  0.00000000E+00  0.00000000E+00  0.00000000E+00  0.00000000E+00  0.00000000E+00
  0.00000000E+00  0.00000000E+00  0.00000000E+00  0.00000000E+00  0.00000000E+00
  0.00000000E+00  0.00000000E+00  0.00000000E+00  0.00000000E+00  0.00000000E+00
  0.00000000E+00  0.00000000E+00  0.00000000E+00  0.00000000E+00  0.00000000E+00
  0.00000000E+00  0.00000000E+00  0.00000000E+00  0.00000000E+00  0.00000000E+00
  0.00000000E+00  0.00000000E+00  0.00000000E+00  0.00000000E+00  0.00000000E+00
  0.00000000E+00  0.00000000E+00  0.00000000E+00  0.00000000E+00  0.00000000E+00
  0.00000000E+00  0.00000000E+00  0.00000000E+00  0.00000000E+00  0.00000000E+00
  0.00000000E+00  0.00000000E+00  0.00000000E+00  0.00000000E+00  0.00000000E+00
  0.00000000E+00  0.00000000E+00  0.00000000E+00  0.00000000E+00  0.00000000E+00
  0.00000000E+00  0.00000000E+00  0.00000000E+00  0.00000000E+00  0.00000000E+00
  0.00000000E+00  0.00000000E+00  0.00000000E+00  0.00000000E+00  0.00000000E+00
  0.00000000E+00  0.00000000E+00  0.00000000E+00  0.00000000E+00  0.00000000E+00
  0.00000000E+00  0.00000000E+00  0.00000000E+00  0.00000000E+00  0.00000000E+00
  0.00000000E+00  0.00000000E+00  0.00000000E+00  0.00000000E+00  0.00000000E+00
  0.00000000E+00  0.00000000E+00  0.00000000E+00  0.00000000E+00  0.00000000E+00
  0.00000000E+00  0.00000000E+00  0.00000000E+00  0.00000000E+00  0.00000000E+00
  0.00000000E+00  0.00000000E+00  0.00000000E+00  0.00000000E+00  0.00000000E+00
  0.00000000E+00  0.00000000E+00  0.00000000E+00  0.00000000E+00  0.00000000E+00
  0.00000000E+00  0.00000000E+00  0.00000000E+00  0.00000000E+00  0.00000000E+00
  0.00000000E+00  0.00000000E+00  0.00000000E+00  0.00000000E+00  0.00000000E+00
  0.00000000E+00  0.00000000E+00  0.00000000E+00  0.00000000E+00  0.00000000E+00
  0.00000000E+00  0.00000000E+00  0.00000000E+00  0.00000000E+00  0.00000000E+00
  0.00000000E+00  0.00000000E+00  0.00000000E+00  0.00000000E+00  0.00000000E+00
  0.00000000E+00  0.00000000E+00  0.00000000E+00  0.00000000E+00  0.00000000E+00
  0.00000000E+00  0.00000000E+00  0.00000000E+00  0.00000000E+00  0.00000000E+00
  0.00000000E+00  0.00000000E+00  0.00000000E+00  0.00000000E+00  0.00000000E+00
  0.00000000E+00  0.00000000E+00  0.00000000E+00  0.00000000E+00  0.00000000E+00
  0.00000000E+00  0.00000000E+00  0.00000000E+00  0.00000000E+00  0.00000000E+00
  0.00000000E+00  0.00000000E+00  0.00000000E+00  0.00000000E+00  0.00000000E+00
  0.00000000E+00  0.00000000E+00  0.00000000E+00  0.00000000E+00  0.00000000E+00
  0.00000000E+00  0.00000000E+00  0.00000000E+00  0.00000000E+00  0.00000000E+00
  0.00000000E+00  0.00000000E+00  0.00000000E+00  0.00000000E+00  0.00000000E+00
  0.00000000E+00  0.00000000E+00  0.00000000E+00  0.00000000E+00  0.00000000E+00
  0.00000000E+00  0.00000000E+00  0.00000000E+00  0.00000000E+00  0.00000000E+00
  0.00000000E+00  0.00000000E+00  0.00000000E+00  0.00000000E+00  0.00000000E+00
  0.00000000E+00  0.00000000E+00  0.00000000E+00  0.00000000E+00  0.00000000E+00
  0.00000000E+00  0.00000000E+00  0.00000000E+00  0.00000000E+00  0.00000000E+00
  0.00000000E+00  0.00000000E+00  0.00000000E+00  0.00000000E+00  0.00000000E+00
  0.00000000E+00  0.00000000E+00  0.00000000E+00  0.00000000E+00  0.00000000E+00
  0.00000000E+00  0.00000000E+00  0.00000000E+00  0.00000000E+00  0.00000000E+00
  0.00000000E+00  0.00000000E+00  0.00000000E+00  0.00000000E+00  0.00000000E+00
  0.00000000E+00  0.00000000E+00  0.00000000E+00  0.00000000E+00  0.00000000E+00
  0.00000000E+00  0.00000000E+00  0.00000000E+00  0.00000000E+00  0.00000000E+00
  0.00000000E+00  0.00000000E+00  0.00000000E+00  0.00000000E+00  0.00000000E+00
  0.00000000E+00  0.00000000E+00  0.00000000E+00  0.00000000E+00  0.00000000E+00
  0.00000000E+00  0.00000000E+00  0.00000000E+00  0.00000000E+00  0.00000000E+00
  0.00000000E+00  0.00000000E+00  0.00000000E+00  0.00000000E+00  0.00000000E+00
  0.00000000E+00  0.00000000E+00
MO    4                     OCC NO =   1.00000000 ORB. ENERGY = -35.48914042
 -3.38371085E+01 -3.19205145E+01 -2.71350019E+01 -2.24736884E+01 -1.86651692E+01
 -1.60949237E+01 -1.41238037E+01 -1.27530953E+01 -1.14213832E+01 -9.69139699E+00
 -7.54317542E+00 -4.67328819E+00 -1.03636954E+00 -2.14191527E+00 -3.66327467E+00
 -4.06441017E+00 -1.78909874E+00  9.23481287E+00  1.24675403E+01  1.12909116E+00
 -1.14983124E+01 -3.64521160E+00  4.04940241E+00  1.29502724E+00  1.25046691E-02
  6.28513041E-03 -2.55162079E-03  8.41603070E-04 -2.31282889E-04  2.92777533E-05
  0.00000000E+00  0.00000000E+00  0.00000000E+00  0.00000000E+00  0.00000000E+00
  0.00000000E+00  0.00000000E+00  0.00000000E+00  0.00000000E+00  0.00000000E+00
  0.00000000E+00  0.00000000E+00  0.00000000E+00  0.00000000E+00  0.00000000E+00
  0.00000000E+00  0.00000000E+00  0.00000000E+00  0.00000000E+00  0.00000000E+00
  0.00000000E+00  0.00000000E+00  0.00000000E+00  0.00000000E+00  0.00000000E+00
  0.00000000E+00  0.00000000E+00  0.00000000E+00  0.00000000E+00  0.00000000E+00
  0.00000000E+00  0.00000000E+00  0.00000000E+00  0.00000000E+00  0.00000000E+00
  0.00000000E+00  0.00000000E+00  0.00000000E+00  0.00000000E+00  0.00000000E+00
  0.00000000E+00  0.00000000E+00  0.00000000E+00  0.00000000E+00  0.00000000E+00