atomref-proatoms Pr_q0_mult4_nist x2c-QZVPall
GAUSSIAN             63 MOL ORBITALS    437 PRIMITIVES        1 NUCLEI
  Pr   1    (CENTRE  1)   0.00000000  0.00000000  0.00000000  CHARGE = 59.0
CENTRE ASSIGNMENTS    1  1  1  1  1  1  1  1  1  1  1  1  1  1  1  1  1  1  1  1
CENTRE ASSIGNMENTS    1  1  1  1  1  1  1  1  1  1  1  1  1  1  1  1  1  1  1  1
CENTRE ASSIGNMENTS    1  1  1  1  1  1  1  1  1  1  1  1  1  1  1  1  1  1  1  1
CENTRE ASSIGNMENTS    1  1  1  1  1  1  1  1  1  1  1  1  1  1  1  1  1  1  1  1
CENTRE ASSIGNMENTS    1  1  1  1  1  1  1  1  1  1  1  1  1  1  1  1  1  1  1  1
CENTRE ASSIGNMENTS    1  1  1  1  1  1  1  1  1  1  1  1  1  1  1  1  1  1  1  1
CENTRE ASSIGNMENTS    1  1  1  1  1  1  1  1  1  1  1  1  1  1  1  1  1  1  1  1
CENTRE ASSIGNMENTS    1  1  1  1  1  1  1  1  1  1  1  1  1  1  1  1  1  1  1  1
CENTRE ASSIGNMENTS    1  1  1  1  1  1  1  1  1  1  1  1  1  1  1  1  1  1  1  1
CENTRE ASSIGNMENTS    1  1  1  1  1  1  1  1  1  1  1  1  1  1  1  1  1  1  1  1
CENTRE ASSIGNMENTS    1  1  1  1  1  1  1  1  1  1  1  1  1  1  1  1  1  1  1  1
CENTRE ASSIGNMENTS    1  1  1  1  1  1  1  1  1  1  1  1  1  1  1  1  1  1  1  1
CENTRE ASSIGNMENTS    1  1  1  1  1  1  1  1  1  1  1  1  1  1  1  1  1  1  1  1
CENTRE ASSIGNMENTS    1  1  1  1  1  1  1  1  1  1  1  1  1  1  1  1  1  1  1  1
CENTRE ASSIGNMENTS    1  1  1  1  1  1  1  1  1  1  1  1  1  1  1  1  1  1  1  1
CENTRE ASSIGNMENTS    1  1  1  1  1  1  1  1  1  1  1  1  1  1  1  1  1  1  1  1
CENTRE ASSIGNMENTS    1  1  1  1  1  1  1  1  1  1  1  1  1  1  1  1  1  1  1  1
CENTRE ASSIGNMENTS    1  1  1  1  1  1  1  1  1  1  1  1  1  1  1  1  1  1  1  1
CENTRE ASSIGNMENTS    1  1  1  1  1  1  1  1  1  1  1  1  1  1  1  1  1  1  1  1
CENTRE ASSIGNMENTS    1  1  1  1  1  1  1  1  1  1  1  1  1  1  1  1  1  1  1  1
CENTRE ASSIGNMENTS    1  1  1  1  1  1  1  1  1  1  1  1  1  1  1  1  1  1  1  1
CENTRE ASSIGNMENTS    1  1  1  1  1  1  1  1  1  1  1  1  1  1  1  1  1
TYPE ASSIGNMENTS      1  1  1  1  1  1  1  1  1  1  1  1  1  1  1  1  1  1  1  1
TYPE ASSIGNMENTS      1  1  1  1  1  1  1  1  1  1  2  3  4  2  3  4  2  3  4  2
TYPE ASSIGNMENTS      3  4  2  3  4  2  3  4  2  3  4  2  3  4  2  3  4  2  3  4
TYPE ASSIGNMENTS      2  3  4  2  3  4  2  3  4  2  3  4  2  3  4  2  3  4  2  3
TYPE ASSIGNMENTS      4  2  3  4  2  3  4  2  3  4  2  3  4  2  3  4  2  3  4  2
TYPE ASSIGNMENTS      3  4  2  3  4  2  3  4  2  3  4  2  3  4  2  3  4  2  3  4
TYPE ASSIGNMENTS      2  3  4  2  3  4  2  3  4  2  3  4  5  8  9  6 10  7  5  8
TYPE ASSIGNMENTS      9  6 10  7  5  8  9  6 10  7  5  8  9  6 10  7  5  8  9  6
TYPE ASSIGNMENTS     10  7  5  8  9  6 10  7  5  8  9  6 10  7  5  8  9  6 10  7
TYPE ASSIGNMENTS      5  8  9  6 10  7  5  8  9  6 10  7  5  8  9  6 10  7  5  8
TYPE ASSIGNMENTS      9  6 10  7  5  8  9  6 10  7  5  8  9  6 10  7  5  8  9  6
TYPE ASSIGNMENTS     10  7  5  8  9  6 10  7  5  8  9  6 10  7  5  8  9  6 10  7
TYPE ASSIGNMENTS      5  8  9  6 10  7  5  8  9  6 10  7 11 14 15 17 20 18 12 16
TYPE ASSIGNMENTS     19 13 11 14 15 17 20 18 12 16 19 13 11 14 15 17 20 18 12 16
TYPE ASSIGNMENTS     19 13 11 14 15 17 20 18 12 16 19 13 11 14 15 17 20 18 12 16
TYPE ASSIGNMENTS     19 13 11 14 15 17 20 18 12 16 19 13 11 14 15 17 20 18 12 16
TYPE ASSIGNMENTS     19 13 11 14 15 17 20 18 12 16 19 13 11 14 15 17 20 18 12 16
TYPE ASSIGNMENTS     19 13 11 14 15 17 20 18 12 16 19 13 11 14 15 17 20 18 12 16
TYPE ASSIGNMENTS     19 13 21 24 25 30 33 31 26 34 35 28 22 27 32 29 23 21 24 25
TYPE ASSIGNMENTS     30 33 31 26 34 35 28 22 27 32 29 23 21 24 25 30 33 31 26 34
TYPE ASSIGNMENTS     35 28 22 27 32 29 23 21 24 25 30 33 31 26 34 35 28 22 27 32
TYPE ASSIGNMENTS     29 23 21 24 25 30 33 31 26 34 35 28 22 27 32 29 23
EXPONENTS  6.7799204E+07 1.8749089E+07 5.7577869E+06 1.7890845E+06 6.0436462E+05
EXPONENTS  2.1788464E+05 8.2595700E+04 3.1918183E+04 1.3790749E+04 6.1335593E+03
EXPONENTS  2.7878474E+03 1.0877434E+03 5.4569538E+04 1.2555572E+04 4.2027765E+03
EXPONENTS  1.5364925E+03 6.1168807E+02 3.2726718E+02 1.2200742E+02 7.1815189E+01
EXPONENTS  4.3221424E+01 1.8729694E+01 9.9965417E+00 4.5035558E+00 2.2888212E+00
EXPONENTS  9.0521834E-01 4.8571319E-01 2.1976513E-01 6.4082889E-02 2.5255945E-02
EXPONENTS  1.5330000E+02 1.5330000E+02 1.5330000E+02 2.6214658E+06 2.6214658E+06
EXPONENTS  2.6214658E+06 7.8425852E+05 7.8425852E+05 7.8425852E+05 2.4588701E+05
EXPONENTS  2.4588701E+05 2.4588701E+05 8.0792900E+04 8.0792900E+04 8.0792900E+04
EXPONENTS  2.7820959E+04 2.7820959E+04 2.7820959E+04 1.0039967E+04 1.0039967E+04
EXPONENTS  1.0039967E+04 3.7971150E+03 3.7971150E+03 3.7971150E+03 1.5045962E+03
EXPONENTS  1.5045962E+03 1.5045962E+03 6.2198642E+02 6.2198642E+02 6.2198642E+02
EXPONENTS  2.7740357E+02 2.7740357E+02 2.7740357E+02 1.3284768E+02 1.3284768E+02
EXPONENTS  1.3284768E+02 6.6277499E+01 6.6277499E+01 6.6277499E+01 3.2639426E+01
EXPONENTS  3.2639426E+01 3.2639426E+01 9.8574398E+02 9.8574398E+02 9.8574398E+02
EXPONENTS  3.4427250E+02 3.4427250E+02 3.4427250E+02 1.5091363E+02 1.5091363E+02
EXPONENTS  1.5091363E+02 3.8533158E+01 3.8533158E+01 3.8533158E+01 1.9883756E+01
EXPONENTS  1.9883756E+01 1.9883756E+01 1.0239227E+01 1.0239227E+01 1.0239227E+01
EXPONENTS  4.5871798E+00 4.5871798E+00 4.5871798E+00 6.0869011E+01 6.0869011E+01
EXPONENTS  6.0869011E+01 1.9435850E+01 1.9435850E+01 1.9435850E+01 6.0972458E+00
EXPONENTS  6.0972458E+00 6.0972458E+00 3.3384621E+00 3.3384621E+00 3.3384621E+00
EXPONENTS  1.6482920E+00 1.6482920E+00 1.6482920E+00 2.8984852E+00 2.8984852E+00
EXPONENTS  2.8984852E+00 9.5736262E-01 9.5736262E-01 9.5736262E-01 5.2305252E-01
EXPONENTS  5.2305252E-01 5.2305252E-01 6.0255452E-01 6.0255452E-01 6.0255452E-01
EXPONENTS  2.5109248E-01 2.5109248E-01 2.5109248E-01 1.0590754E-01 1.0590754E-01
EXPONENTS  1.0590754E-01 5.5559517E-02 5.5559517E-02 5.5559517E-02 1.6803900E-02
EXPONENTS  1.6803900E-02 1.6803900E-02 3.4323681E+03 3.4323681E+03 3.4323681E+03
EXPONENTS  3.4323681E+03 3.4323681E+03 3.4323681E+03 1.0105104E+03 1.0105104E+03
EXPONENTS  1.0105104E+03 1.0105104E+03 1.0105104E+03 1.0105104E+03 3.9590213E+02
EXPONENTS  3.9590213E+02 3.9590213E+02 3.9590213E+02 3.9590213E+02 3.9590213E+02
EXPONENTS  1.7582798E+02 1.7582798E+02 1.7582798E+02 1.7582798E+02 1.7582798E+02
EXPONENTS  1.7582798E+02 8.4616450E+01 8.4616450E+01 8.4616450E+01 8.4616450E+01
EXPONENTS  8.4616450E+01 8.4616450E+01 4.2914193E+01 4.2914193E+01 4.2914193E+01
EXPONENTS  4.2914193E+01 4.2914193E+01 4.2914193E+01 2.2176745E+01 2.2176745E+01
EXPONENTS  2.2176745E+01 2.2176745E+01 2.2176745E+01 2.2176745E+01 1.1308518E+01
EXPONENTS  1.1308518E+01 1.1308518E+01 1.1308518E+01 1.1308518E+01 1.1308518E+01
EXPONENTS  2.1000000E+01 2.1000000E+01 2.1000000E+01 2.1000000E+01 2.1000000E+01
EXPONENTS  2.1000000E+01 1.5665957E+02 1.5665957E+02 1.5665957E+02 1.5665957E+02
EXPONENTS  1.5665957E+02 1.5665957E+02 6.2721900E+01 6.2721900E+01 6.2721900E+01
EXPONENTS  6.2721900E+01 6.2721900E+01 6.2721900E+01 1.3256685E+01 1.3256685E+01
EXPONENTS  1.3256685E+01 1.3256685E+01 1.3256685E+01 1.3256685E+01 5.4637215E+00
EXPONENTS  5.4637215E+00 5.4637215E+00 5.4637215E+00 5.4637215E+00 5.4637215E+00
EXPONENTS  7.8772070E+00 7.8772070E+00 7.8772070E+00 7.8772070E+00 7.8772070E+00
EXPONENTS  7.8772070E+00 3.1065426E+00 3.1065426E+00 3.1065426E+00 3.1065426E+00
EXPONENTS  3.1065426E+00 3.1065426E+00 1.5417708E+00 1.5417708E+00 1.5417708E+00
EXPONENTS  1.5417708E+00 1.5417708E+00 1.5417708E+00 6.5767497E-01 6.5767497E-01
EXPONENTS  6.5767497E-01 6.5767497E-01 6.5767497E-01 6.5767497E-01 2.4591432E-01
EXPONENTS  2.4591432E-01 2.4591432E-01 2.4591432E-01 2.4591432E-01 2.4591432E-01
EXPONENTS  8.5052841E-02 8.5052841E-02 8.5052841E-02 8.5052841E-02 8.5052841E-02
EXPONENTS  8.5052841E-02 2.7031675E-02 2.7031675E-02 2.7031675E-02 2.7031675E-02
EXPONENTS  2.7031675E-02 2.7031675E-02 1.7142962E+02 1.7142962E+02 1.7142962E+02
EXPONENTS  1.7142962E+02 1.7142962E+02 1.7142962E+02 1.7142962E+02 1.7142962E+02
EXPONENTS  1.7142962E+02 1.7142962E+02 6.5750237E+01 6.5750237E+01 6.5750237E+01
EXPONENTS  6.5750237E+01 6.5750237E+01 6.5750237E+01 6.5750237E+01 6.5750237E+01
EXPONENTS  6.5750237E+01 6.5750237E+01 3.1950412E+01 3.1950412E+01 3.1950412E+01
EXPONENTS  3.1950412E+01 3.1950412E+01 3.1950412E+01 3.1950412E+01 3.1950412E+01
EXPONENTS  3.1950412E+01 3.1950412E+01 1.5863335E+01 1.5863335E+01 1.5863335E+01
EXPONENTS  1.5863335E+01 1.5863335E+01 1.5863335E+01 1.5863335E+01 1.5863335E+01
EXPONENTS  1.5863335E+01 1.5863335E+01 7.9977371E+00 7.9977371E+00 7.9977371E+00
EXPONENTS  7.9977371E+00 7.9977371E+00 7.9977371E+00 7.9977371E+00 7.9977371E+00
EXPONENTS  7.9977371E+00 7.9977371E+00 4.0897912E+00 4.0897912E+00 4.0897912E+00
EXPONENTS  4.0897912E+00 4.0897912E+00 4.0897912E+00 4.0897912E+00 4.0897912E+00
EXPONENTS  4.0897912E+00 4.0897912E+00 2.0679043E+00 2.0679043E+00 2.0679043E+00
EXPONENTS  2.0679043E+00 2.0679043E+00 2.0679043E+00 2.0679043E+00 2.0679043E+00
EXPONENTS  2.0679043E+00 2.0679043E+00 1.0055647E+00 1.0055647E+00 1.0055647E+00
EXPONENTS  1.0055647E+00 1.0055647E+00 1.0055647E+00 1.0055647E+00 1.0055647E+00
EXPONENTS  1.0055647E+00 1.0055647E+00 4.6291160E-01 4.6291160E-01 4.6291160E-01
EXPONENTS  4.6291160E-01 4.6291160E-01 4.6291160E-01 4.6291160E-01 4.6291160E-01
EXPONENTS  4.6291160E-01 4.6291160E-01 1.9324650E-01 1.9324650E-01 1.9324650E-01
EXPONENTS  1.9324650E-01 1.9324650E-01 1.9324650E-01 1.9324650E-01 1.9324650E-01
EXPONENTS  1.9324650E-01 1.9324650E-01 6.4000000E-02 6.4000000E-02 6.4000000E-02
EXPONENTS  6.4000000E-02 6.4000000E-02 6.4000000E-02 6.4000000E-02 6.4000000E-02
EXPONENTS  6.4000000E-02 6.4000000E-02 1.9873100E+01 1.9873100E+01 1.9873100E+01
EXPONENTS  1.9873100E+01 1.9873100E+01 1.9873100E+01 1.9873100E+01 1.9873100E+01
EXPONENTS  1.9873100E+01 1.9873100E+01 1.9873100E+01 1.9873100E+01 1.9873100E+01
EXPONENTS  1.9873100E+01 1.9873100E+01 8.9102000E+00 8.9102000E+00 8.9102000E+00
EXPONENTS  8.9102000E+00 8.9102000E+00 8.9102000E+00 8.9102000E+00 8.9102000E+00
EXPONENTS  8.9102000E+00 8.9102000E+00 8.9102000E+00 8.9102000E+00 8.9102000E+00
EXPONENTS  8.9102000E+00 8.9102000E+00 3.9977000E+00 3.9977000E+00 3.9977000E+00
EXPONENTS  3.9977000E+00 3.9977000E+00 3.9977000E+00 3.9977000E+00 3.9977000E+00
EXPONENTS  3.9977000E+00 3.9977000E+00 3.9977000E+00 3.9977000E+00 3.9977000E+00
EXPONENTS  3.9977000E+00 3.9977000E+00 1.7285000E+00 1.7285000E+00 1.7285000E+00
EXPONENTS  1.7285000E+00 1.7285000E+00 1.7285000E+00 1.7285000E+00 1.7285000E+00
EXPONENTS  1.7285000E+00 1.7285000E+00 1.7285000E+00 1.7285000E+00 1.7285000E+00
EXPONENTS  1.7285000E+00 1.7285000E+00 4.0953000E-01 4.0953000E-01 4.0953000E-01
EXPONENTS  4.0953000E-01 4.0953000E-01 4.0953000E-01 4.0953000E-01 4.0953000E-01
EXPONENTS  4.0953000E-01 4.0953000E-01 4.0953000E-01 4.0953000E-01 4.0953000E-01
EXPONENTS  4.0953000E-01 4.0953000E-01
MO    1                     OCC NO =   1.00000000 ORB. ENERGY = -1537.63656946
  7.58801680E+01  6.70908560E+01  6.42180583E+01  5.60448393E+01  5.01793421E+01
  4.64344134E+01  4.51206607E+01  4.40273406E+01  4.50049455E+01  4.05601953E+01
  3.75814572E+01  2.29528113E+01  3.71103109E+00  5.35067387E+00  1.66003029E+01
  3.03037625E+01  2.31617550E+01  9.73908524E+00  1.28720722E+00 -5.55665628E-01
  2.00989997E-01 -4.55913151E-02  1.83180432E-02 -5.48579048E-03  1.92203264E-03
 -5.46441380E-04  2.24343706E-04 -4.16109373E-05  4.47637564E-06 -7.53096042E-07
  0.00000000E+00  0.00000000E+00  0.00000000E+00  0.00000000E+00  0.00000000E+00
  0.00000000E+00  0.00000000E+00  0.00000000E+00  0.00000000E+00  0.00000000E+00
  0.00000000E+00  0.00000000E+00  0.00000000E+00  0.00000000E+00  0.00000000E+00
  0.00000000E+00  0.00000000E+00  0.00000000E+00  0.00000000E+00  0.00000000E+00
  0.00000000E+00  0.00000000E+00  0.00000000E+00  0.00000000E+00  0.00000000E+00
  0.00000000E+00  0.00000000E+00  0.00000000E+00  0.00000000E+00  0.00000000E+00
  0.00000000E+00  0.00000000E+00  0.00000000E+00  0.00000000E+00  0.00000000E+00
  0.00000000E+00  0.00000000E+00  0.00000000E+00  0.00000000E+00  0.00000000E+00
  0.00000000E+00  0.00000000E+00  0.00000000E+00  0.00000000E+00  0.00000000E+00
  0.00000000E+00  0.00000000E+00  0.00000000E+00  0.00000000E+00  0.00000000E+00
  0.00000000E+00  0.00000000E+00  0.00000000E+00  0.00000000E+00  0.00000000E+00
  0.00000000E+00  0.00000000E+00  0.00000000E+00  0.00000000E+00  0.00000000E+00
  0.00000000E+00  0.00000000E+00  0.00000000E+00  0.00000000E+00  0.00000000E+00
  0.00000000E+00  0.00000000E+00  0.00000000E+00  0.00000000E+00  0.00000000E+00
  0.00000000E+00  0.00000000E+00  0.00000000E+00  0.00000000E+00  0.00000000E+00
  0.00000000E+00  0.00000000E+00  0.00000000E+00  0.00000000E+00  0.00000000E+00
  0.00000000E+00  0.00000000E+00  0.00000000E+00  0.00000000E+00  0.00000000E+00
  0.00000000E+00  0.00000000E+00  0.00000000E+00  0.00000000E+00  0.00000000E+00
  0.00000000E+00  0.00000000E+00  0.00000000E+00  0.00000000E+00  0.00000000E+00
  0.00000000E+00  0.00000000E+00  0.00000000E+00  0.00000000E+00  0.00000000E+00
  0.00000000E+00  0.00000000E+00  0.00000000E+00  0.00000000E+00  0.00000000E+00
  0.00000000E+00  0.00000000E+00  0.00000000E+00  0.00000000E+00  0.00000000E+00
  0.00000000E+00  0.00000000E+00  0.00000000E+00  0.00000000E+00  0.00000000E+00
  0.00000000E+00  0.00000000E+00  0.00000000E+00  0.00000000E+00  0.00000000E+00
  0.00000000E+00  0.00000000E+00  0.00000000E+00  0.00000000E+00  0.00000000E+00
  0.00000000E+00  0.00000000E+00  0.00000000E+00  0.00000000E+00  0.00000000E+00
  0.00000000E+00  0.00000000E+00  0.00000000E+00  0.00000000E+00  0.00000000E+00
  0.00000000E+00  0.00000000E+00  0.00000000E+00  0.00000000E+00  0.00000000E+00
  0.00000000E+00  0.00000000E+00  0.00000000E+00  0.00000000E+00  0.00000000E+00
  0.00000000E+00  0.00000000E+00  0.00000000E+00  0.00000000E+00  0.00000000E+00
  0.00000000E+00  0.00000000E+00  0.00000000E+00  0.00000000E+00  0.00000000E+00
  0.00000000E+00  0.00000000E+00  0.00000000E+00  0.00000000E+00  0.00000000E+00
  0.00000000E+00  0.00000000E+00  0.00000000E+00  0.00000000E+00  0.00000000E+00
  0.00000000E+00  0.00000000E+00  0.00000000E+00  0.00000000E+00  0.00000000E+00
  0.00000000E+00  0.00000000E+00  0.00000000E+00  0.00000000E+00  0.00000000E+00
  0.00000000E+00  0.00000000E+00  0.00000000E+00  0.00000000E+00  0.00000000E+00
  0.00000000E+00  0.00000000E+00  0.00000000E+00  0.00000000E+00  0.00000000E+00
  0.00000000E+00  0.00000000E+00  0.00000000E+00  0.00000000E+00  0.00000000E+00
  0.00000000E+00  0.00000000E+00  0.00000000E+00  0.00000000E+00  0.00000000E+00
  0.00000000E+00  0.00000000E+00  0.00000000E+00  0.00000000E+00  0.00000000E+00
  0.00000000E+00  0.00000000E+00  0.00000000E+00  0.00000000E+00  0.00000000E+00
  0.00000000E+00  0.00000000E+00  0.00000000E+00  0.00000000E+00  0.00000000E+00
  0.00000000E+00  0.00000000E+00  0.00000000E+00  0.00000000E+00  0.00000000E+00
  0.00000000E+00  0.00000000E+00  0.00000000E+00  0.00000000E+00  0.00000000E+00
  0.00000000E+00  0.00000000E+00  0.00000000E+00  0.00000000E+00  0.00000000E+00
  0.00000000E+00  0.00000000E+00  0.00000000E+00  0.00000000E+00  0.00000000E+00
  0.00000000E+00  0.00000000E+00  0.00000000E+00  0.00000000E+00  0.00000000E+00
  0.00000000E+00  0.00000000E+00  0.00000000E+00  0.00000000E+00  0.00000000E+00
  0.00000000E+00  0.00000000E+00  0.00000000E+00  0.00000000E+00  0.00000000E+00
  0.00000000E+00  0.00000000E+00  0.00000000E+00  0.00000000E+00  0.00000000E+00
  0.00000000E+00  0.00000000E+00  0.00000000E+00  0.00000000E+00  0.00000000E+00
  0.00000000E+00  0.00000000E+00  0.00000000E+00  0.00000000E+00  0.00000000E+00
  0.00000000E+00  0.00000000E+00  0.00000000E+00  0.00000000E+00  0.00000000E+00
  0.00000000E+00  0.00000000E+00  0.00000000E+00  0.00000000E+00  0.00000000E+00
  0.00000000E+00  0.00000000E+00  0.00000000E+00  0.00000000E+00  0.00000000E+00
  0.00000000E+00  0.00000000E+00  0.00000000E+00  0.00000000E+00  0.00000000E+00
  0.00000000E+00  0.00000000E+00  0.00000000E+00  0.00000000E+00  0.00000000E+00
  0.00000000E+00  0.00000000E+00  0.00000000E+00  0.00000000E+00  0.00000000E+00
  0.00000000E+00  0.00000000E+00  0.00000000E+00  0.00000000E+00  0.00000000E+00
  0.00000000E+00  0.00000000E+00  0.00000000E+00  0.00000000E+00  0.00000000E+00
  0.00000000E+00  0.00000000E+00  0.00000000E+00  0.00000000E+00  0.00000000E+00
  0.00000000E+00  0.00000000E+00  0.00000000E+00  0.00000000E+00  0.00000000E+00
  0.00000000E+00  0.00000000E+00  0.00000000E+00  0.00000000E+00  0.00000000E+00
  0.00000000E+00  0.00000000E+00  0.00000000E+00  0.00000000E+00  0.00000000E+00
  0.00000000E+00  0.00000000E+00  0.00000000E+00  0.00000000E+00  0.00000000E+00
  0.00000000E+00  0.00000000E+00  0.00000000E+00  0.00000000E+00  0.00000000E+00
  0.00000000E+00  0.00000000E+00  0.00000000E+00  0.00000000E+00  0.00000000E+00
  0.00000000E+00  0.00000000E+00  0.00000000E+00  0.00000000E+00  0.00000000E+00
  0.00000000E+00  0.00000000E+00  0.00000000E+00  0.00000000E+00  0.00000000E+00
  0.00000000E+00  0.00000000E+00  0.00000000E+00  0.00000000E+00  0.00000000E+00
  0.00000000E+00  0.00000000E+00  0.00000000E+00  0.00000000E+00  0.00000000E+00
  0.00000000E+00  0.00000000E+00  0.00000000E+00  0.00000000E+00  0.00000000E+00
  0.00000000E+00  0.00000000E+00  0.00000000E+00  0.00000000E+00  0.00000000E+00
  0.00000000E+00  0.00000000E+00  0.00000000E+00  0.00000000E+00  0.00000000E+00
  0.00000000E+00  0.00000000E+00  0.00000000E+00  0.00000000E+00  0.00000000E+00
  0.00000000E+00  0.00000000E+00  0.00000000E+00  0.00000000E+00  0.00000000E+00
  0.00000000E+00  0.00000000E+00  0.00000000E+00  0.00000000E+00  0.00000000E+00
  0.00000000E+00  0.00000000E+00  0.00000000E+00  0.00000000E+00  0.00000000E+00
  0.00000000E+00  0.00000000E+00  0.00000000E+00  0.00000000E+00  0.00000000E+00
  0.00000000E+00  0.00000000E+00  0.00000000E+00  0.00000000E+00  0.00000000E+00
  0.00000000E+00  0.00000000E+00  0.00000000E+00  0.00000000E+00  0.00000000E+00
  0.00000000E+00  0.00000000E+00
MO    2                     OCC NO =   1.00000000 ORB. ENERGY = -248.42226224
 -2.74031288E+01 -2.42289839E+01 -2.31915107E+01 -2.02398597E+01 -1.81216122E+01
 -1.67691802E+01 -1.62947356E+01 -1.58998974E+01 -1.62529466E+01 -1.46477833E+01
 -1.35720510E+01 -8.28910717E+00 -2.10065127E+00 -3.02878084E+00 -9.39670042E+00
 -1.71536254E+01 -1.70335351E+01 -3.11931968E+00  9.95820922E+00  6.41694480E+00
  4.27670013E+00  3.41965879E-01 -3.98881165E-02  7.98052291E-03 -2.45650511E-03
  6.33088883E-04 -2.52868437E-04  4.64164406E-05 -4.95085725E-06  8.31712611E-07
  0.00000000E+00  0.00000000E+00  0.00000000E+00  0.00000000E+00  0.00000000E+00
  0.00000000E+00  0.00000000E+00  0.00000000E+00  0.00000000E+00  0.00000000E+00
  0.00000000E+00  0.00000000E+00  0.00000000E+00  0.00000000E+00  0.00000000E+00
  0.00000000E+00  0.00000000E+00  0.00000000E+00  0.00000000E+00  0.00000000E+00
  0.00000000E+00  0.00000000E+00  0.00000000E+00  0.00000000E+00  0.00000000E+00
  0.00000000E+00  0.00000000E+00  0.00000000E+00  0.00000000E+00  0.00000000E+00
  0.00000000E+00  0.00000000E+00  0.00000000E+00  0.00000000E+00  0.00000000E+00
  0.00000000E+00  0.00000000E+00  0.00000000E+00  0.00000000E+00  0.00000000E+00
  0.00000000E+00  0.00000000E+00  0.00000000E+00  0.00000000E+00  0.00000000E+00
  0.00000000E+00  0.00000000E+00  0.00000000E+00  0.00000000E+00  0.00000000E+00
  0.00000000E+00  0.00000000E+00  0.00000000E+00  0.00000000E+00  0.00000000E+00
  0.00000000E+00  0.00000000E+00  0.00000000E+00  0.00000000E+00  0.00000000E+00
  0.00000000E+00  0.00000000E+00  0.00000000E+00  0.00000000E+00  0.00000000E+00
  0.00000000E+00  0.00000000E+00  0.00000000E+00  0.00000000E+00  0.00000000E+00
  0.00000000E+00  0.00000000E+00  0.00000000E+00  0.00000000E+00  0.00000000E+00
  0.00000000E+00  0.00000000E+00  0.00000000E+00  0.00000000E+00  0.00000000E+00
  0.00000000E+00  0.00000000E+00  0.00000000E+00  0.00000000E+00  0.00000000E+00
  0.00000000E+00  0.00000000E+00  0.00000000E+00  0.00000000E+00  0.00000000E+00
  0.00000000E+00  0.00000000E+00  0.00000000E+00  0.00000000E+00  0.00000000E+00
  0.00000000E+00  0.00000000E+00  0.00000000E+00  0.00000000E+00  0.00000000E+00
  0.00000000E+00  0.00000000E+00  0.00000000E+00  0.00000000E+00  0.00000000E+00
  0.00000000E+00  0.00000000E+00  0.00000000E+00  0.00000000E+00  0.00000000E+00
  0.00000000E+00  0.00000000E+00  0.00000000E+00  0.00000000E+00  0.00000000E+00
  0.00000000E+00  0.00000000E+00  0.00000000E+00  0.00000000E+00  0.00000000E+00
  0.00000000E+00  0.00000000E+00  0.00000000E+00  0.00000000E+00  0.00000000E+00
  0.00000000E+00  0.00000000E+00  0.00000000E+00  0.00000000E+00  0.00000000E+00
  0.00000000E+00  0.00000000E+00  0.00000000E+00  0.00000000E+00  0.00000000E+00
  0.00000000E+00  0.00000000E+00  0.00000000E+00  0.00000000E+00  0.00000000E+00
  0.00000000E+00  0.00000000E+00  0.00000000E+00  0.00000000E+00  0.00000000E+00
  0.00000000E+00  0.00000000E+00  0.00000000E+00  0.00000000E+00  0.00000000E+00
  0.00000000E+00  0.00000000E+00  0.00000000E+00  0.00000000E+00  0.00000000E+00
  0.00000000E+00  0.00000000E+00  0.00000000E+00  0.00000000E+00  0.00000000E+00
  0.00000000E+00  0.00000000E+00  0.00000000E+00  0.00000000E+00  0.00000000E+00
  0.00000000E+00  0.00000000E+00  0.00000000E+00  0.00000000E+00  0.00000000E+00
  0.00000000E+00  0.00000000E+00  0.00000000E+00  0.00000000E+00  0.00000000E+00
  0.00000000E+00  0.00000000E+00  0.00000000E+00  0.00000000E+00  0.00000000E+00
  0.00000000E+00  0.00000000E+00  0.00000000E+00  0.00000000E+00  0.00000000E+00
  0.00000000E+00  0.00000000E+00  0.00000000E+00  0.00000000E+00  0.00000000E+00
  0.00000000E+00  0.00000000E+00  0.00000000E+00  0.00000000E+00  0.00000000E+00
  0.00000000E+00  0.00000000E+00  0.00000000E+00  0.00000000E+00  0.00000000E+00
  0.00000000E+00  0.00000000E+00  0.00000000E+00  0.00000000E+00  0.00000000E+00
  0.00000000E+00  0.00000000E+00  0.00000000E+00  0.00000000E+00  0.00000000E+00
  0.00000000E+00  0.00000000E+00  0.00000000E+00  0.00000000E+00  0.00000000E+00
  0.00000000E+00  0.00000000E+00  0.00000000E+00  0.00000000E+00  0.00000000E+00
  0.00000000E+00  0.00000000E+00  0.00000000E+00  0.00000000E+00  0.00000000E+00
  0.00000000E+00  0.00000000E+00  0.00000000E+00  0.00000000E+00  0.00000000E+00
  0.00000000E+00  0.00000000E+00  0.00000000E+00  0.00000000E+00  0.00000000E+00
  0.00000000E+00  0.00000000E+00  0.00000000E+00  0.00000000E+00  0.00000000E+00
  0.00000000E+00  0.00000000E+00  0.00000000E+00  0.00000000E+00  0.00000000E+00
  0.00000000E+00  0.00000000E+00  0.00000000E+00  0.00000000E+00  0.00000000E+00
  0.00000000E+00  0.00000000E+00  0.00000000E+00  0.00000000E+00  0.00000000E+00
  0.00000000E+00  0.00000000E+00  0.00000000E+00  0.00000000E+00  0.00000000E+00
  0.00000000E+00  0.00000000E+00  0.00000000E+00  0.00000000E+00  0.00000000E+00
  0.00000000E+00  0.00000000E+00  0.00000000E+00  0.00000000E+00  0.00000000E+00
  0.00000000E+00  0.00000000E+00  0.00000000E+00  0.00000000E+00  0.00000000E+00
  0.00000000E+00  0.00000000E+00  0.00000000E+00  0.00000000E+00  0.00000000E+00
  0.00000000E+00  0.00000000E+00  0.00000000E+00  0.00000000E+00  0.00000000E+00
  0.00000000E+00  0.00000000E+00  0.00000000E+00  0.00000000E+00  0.00000000E+00
  0.00000000E+00  0.00000000E+00  0.00000000E+00  0.00000000E+00  0.00000000E+00
  0.00000000E+00  0.00000000E+00  0.00000000E+00  0.00000000E+00  0.00000000E+00
  0.00000000E+00  0.00000000E+00  0.00000000E+00  0.00000000E+00  0.00000000E+00
  0.00000000E+00  0.00000000E+00  0.00000000E+00  0.00000000E+00  0.00000000E+00
  0.00000000E+00  0.00000000E+00  0.00000000E+00  0.00000000E+00  0.00000000E+00
  0.00000000E+00  0.00000000E+00  0.00000000E+00  0.00000000E+00  0.00000000E+00
  0.00000000E+00  0.00000000E+00  0.00000000E+00  0.00000000E+00  0.00000000E+00
  0.00000000E+00  0.00000000E+00  0.00000000E+00  0.00000000E+00  0.00000000E+00
  0.00000000E+00  0.00000000E+00  0.00000000E+00  0.00000000E+00  0.00000000E+00
  0.00000000E+00  0.00000000E+00  0.00000000E+00  0.00000000E+00  0.00000000E+00
  0.00000000E+00  0.00000000E+00  0.00000000E+00  0.00000000E+00  0.00000000E+00
  0.00000000E+00  0.00000000E+00  0.00000000E+00  0.00000000E+00  0.00000000E+00
  0.00000000E+00  0.00000000E+00  0.00000000E+00  0.00000000E+00  0.00000000E+00
  0.00000000E+00  0.00000000E+00  0.00000000E+00  0.00000000E+00  0.00000000E+00
  0.00000000E+00  0.00000000E+00  0.00000000E+00  0.00000000E+00  0.00000000E+00
  0.00000000E+00  0.00000000E+00  0.00000000E+00  0.00000000E+00  0.00000000E+00
  0.00000000E+00  0.00000000E+00  0.00000000E+00  0.00000000E+00  0.00000000E+00
  0.00000000E+00  0.00000000E+00  0.00000000E+00  0.00000000E+00  0.00000000E+00
  0.00000000E+00  0.00000000E+00  0.00000000E+00  0.00000000E+00  0.00000000E+00
  0.00000000E+00  0.00000000E+00  0.00000000E+00  0.00000000E+00  0.00000000E+00
  0.00000000E+00  0.00000000E+00  0.00000000E+00  0.00000000E+00  0.00000000E+00
  0.00000000E+00  0.00000000E+00  0.00000000E+00  0.00000000E+00  0.00000000E+00
  0.00000000E+00  0.00000000E+00  0.00000000E+00  0.00000000E+00  0.00000000E+00
  0.00000000E+00  0.00000000E+00
MO    3                     OCC NO =   1.00000000 ORB. ENERGY = -54.08386254
  1.25328504E+01  1.10811518E+01  1.06066623E+01  9.25672157E+00  8.28793880E+00
  7.66940259E+00  7.45241486E+00  7.27183517E+00  7.43330261E+00  6.69917943E+00
  6.20719213E+00  3.79103207E+00  1.02289585E+00  1.47484135E+00  4.57565042E+00
  8.35282491E+00  8.79633442E+00  1.23172020E+00 -7.37177550E+00 -6.86620890E+00
 -3.89981868E+00  3.78051268E+00  2.72356377E+00  2.51749490E-01 -2.26569910E-02
  5.32652725E-03 -2.08518629E-03  3.75115821E-04 -4.02110190E-05  6.76260685E-06
  0.00000000E+00  0.00000000E+00  0.00000000E+00  0.00000000E+00  0.00000000E+00
  0.00000000E+00  0.00000000E+00  0.00000000E+00  0.00000000E+00  0.00000000E+00
  0.00000000E+00  0.00000000E+00  0.00000000E+00  0.00000000E+00  0.00000000E+00
  0.00000000E+00  0.00000000E+00  0.00000000E+00  0.00000000E+00  0.00000000E+00
  0.00000000E+00  0.00000000E+00  0.00000000E+00  0.00000000E+00  0.00000000E+00
  0.00000000E+00  0.00000000E+00  0.00000000E+00  0.00000000E+00  0.00000000E+00
  0.00000000E+00  0.00000000E+00  0.00000000E+00  0.00000000E+00  0.00000000E+00
  0.00000000E+00  0.00000000E+00  0.00000000E+00  0.00000000E+00  0.00000000E+00
  0.00000000E+00  0.00000000E+00  0.00000000E+00  0.00000000E+00  0.00000000E+00
  0.00000000E+00  0.00000000E+00  0.00000000E+00  0.00000000E+00  0.00000000E+00
  0.00000000E+00  0.00000000E+00  0.00000000E+00  0.00000000E+00  0.00000000E+00
  0.00000000E+00  0.00000000E+00  0.00000000E+00  0.00000000E+00  0.00000000E+00
  0.00000000E+00  0.00000000E+00  0.00000000E+00  0.00000000E+00  0.00000000E+00
  0.00000000E+00  0.00000000E+00  0.00000000E+00  0.00000000E+00  0.00000000E+00
  0.00000000E+00  0.00000000E+00  0.00000000E+00  0.00000000E+00  0.00000000E+00
  0.00000000E+00  0.00000000E+00  0.00000000E+00  0.00000000E+00  0.00000000E+00
  0.00000000E+00  0.00000000E+00  0.00000000E+00  0.00000000E+00  0.00000000E+00
  0.00000000E+00  0.00000000E+00  0.00000000E+00  0.00000000E+00  0.00000000E+00
  0.00000000E+00  0.00000000E+00  0.00000000E+00  0.00000000E+00  0.00000000E+00
  0.00000000E+00  0.00000000E+00  0.00000000E+00  0.00000000E+00  0.00000000E+00
  0.00000000E+00  0.00000000E+00  0.00000000E+00  0.00000000E+00  0.00000000E+00
  0.00000000E+00  0.00000000E+00  0.00000000E+00  0.00000000E+00  0.00000000E+00
  0.00000000E+00  0.00000000E+00  0.00000000E+00  0.00000000E+00  0.00000000E+00
  0.00000000E+00  0.00000000E+00  0.00000000E+00  0.00000000E+00  0.00000000E+00
  0.00000000E+00  0.00000000E+00  0.00000000E+00  0.00000000E+00  0.00000000E+00
  0.00000000E+00  0.00000000E+00  0.00000000E+00  0.00000000E+00  0.00000000E+00
  0.00000000E+00  0.00000000E+00  0.00000000E+00  0.00000000E+00  0.00000000E+00
  0.00000000E+00  0.00000000E+00  0.00000000E+00  0.00000000E+00  0.00000000E+00
  0.00000000E+00  0.00000000E+00  0.00000000E+00  0.00000000E+00  0.00000000E+00
  0.00000000E+00  0.00000000E+00  0.00000000E+00  0.00000000E+00  0.00000000E+00
  0.00000000E+00  0.00000000E+00  0.00000000E+00  0.00000000E+00  0.00000000E+00
  0.00000000E+00  0.00000000E+00  0.00000000E+00  0.00000000E+00  0.00000000E+00
  0.00000000E+00  0.00000000E+00  0.00000000E+00  0.00000000E+00  0.00000000E+00
  0.00000000E+00  0.00000000E+00  0.00000000E+00  0.00000000E+00  0.00000000E+00
  0.00000000E+00  0.00000000E+00  0.00000000E+00  0.00000000E+00  0.00000000E+00
  0.00000000E+00  0.00000000E+00  0.00000000E+00  0.00000000E+00  0.00000000E+00
  0.00000000E+00  0.00000000E+00  0.00000000E+00  0.00000000E+00  0.00000000E+00
  0.00000000E+00  0.00000000E+00  0.00000000E+00  0.00000000E+00  0.00000000E+00
  0.00000000E+00  0.00000000E+00  0.00000000E+00  0.00000000E+00  0.00000000E+00
  0.00000000E+00  0.00000000E+00  0.00000000E+00  0.00000000E+00  0.00000000E+00
  0.00000000E+00  0.00000000E+00  0.00000000E+00  0.00000000E+00  0.00000000E+00
  0.00000000E+00  0.00000000E+00  0.00000000E+00  0.00000000E+00  0.00000000E+00
  0.00000000E+00  0.00000000E+00  0.00000000E+00  0.00000000E+00  0.00000000E+00
  0.00000000E+00  0.00000000E+00  0.00000000E+00  0.00000000E+00  0.00000000E+00
  0.00000000E+00  0.00000000E+00  0.00000000E+00  0.00000000E+00  0.00000000E+00
  0.00000000E+00  0.00000000E+00  0.00000000E+00  0.00000000E+00  0.00000000E+00
  0.00000000E+00  0.00000000E+00  0.00000000E+00  0.00000000E+00  0.00000000E+00
  0.00000000E+00  0.00000000E+00  0.00000000E+00  0.00000000E+00  0.00000000E+00
  0.00000000E+00  0.00000000E+00  0.00000000E+00  0.00000000E+00  0.00000000E+00
  0.00000000E+00  0.00000000E+00  0.00000000E+00  0.00000000E+00  0.00000000E+00
  0.00000000E+00  0.00000000E+00  0.00000000E+00  0.00000000E+00  0.00000000E+00
  0.00000000E+00  0.00000000E+00  0.00000000E+00  0.00000000E+00  0.00000000E+00
  0.00000000E+00  0.00000000E+00  0.00000000E+00  0.00000000E+00  0.00000000E+00