atomref-proatoms Re_q0_mult6_nist x2c-QZVPall
GAUSSIAN             75 MOL ORBITALS    377 PRIMITIVES        1 NUCLEI
  Re   1    (CENTRE  1)   0.00000000  0.00000000  0.00000000  CHARGE = 75.0
CENTRE ASSIGNMENTS    1  1  1  1  1  1  1  1  1  1  1  1  1  1  1  1  1  1  1  1
CENTRE ASSIGNMENTS    1  1  1  1  1  1  1  1  1  1  1  1  1  1  1  1  1  1  1  1
CENTRE ASSIGNMENTS    1  1  1  1  1  1  1  1  1  1  1  1  1  1  1  1  1  1  1  1
CENTRE ASSIGNMENTS    1  1  1  1  1  1  1  1  1  1  1  1  1  1  1  1  1  1  1  1
CENTRE ASSIGNMENTS    1  1  1  1  1  1  1  1  1  1  1  1  1  1  1  1  1  1  1  1
CENTRE ASSIGNMENTS    1  1  1  1  1  1  1  1  1  1  1  1  1  1  1  1  1  1  1  1
CENTRE ASSIGNMENTS    1  1  1  1  1  1  1  1  1  1  1  1  1  1  1  1  1  1  1  1
CENTRE ASSIGNMENTS    1  1  1  1  1  1  1  1  1  1  1  1  1  1  1  1  1  1  1  1
CENTRE ASSIGNMENTS    1  1  1  1  1  1  1  1  1  1  1  1  1  1  1  1  1  1  1  1
CENTRE ASSIGNMENTS    1  1  1  1  1  1  1  1  1  1  1  1  1  1  1  1  1  1  1  1
CENTRE ASSIGNMENTS    1  1  1  1  1  1  1  1  1  1  1  1  1  1  1  1  1  1  1  1
CENTRE ASSIGNMENTS    1  1  1  1  1  1  1  1  1  1  1  1  1  1  1  1  1  1  1  1
CENTRE ASSIGNMENTS    1  1  1  1  1  1  1  1  1  1  1  1  1  1  1  1  1  1  1  1
CENTRE ASSIGNMENTS    1  1  1  1  1  1  1  1  1  1  1  1  1  1  1  1  1  1  1  1
CENTRE ASSIGNMENTS    1  1  1  1  1  1  1  1  1  1  1  1  1  1  1  1  1  1  1  1
CENTRE ASSIGNMENTS    1  1  1  1  1  1  1  1  1  1  1  1  1  1  1  1  1  1  1  1
CENTRE ASSIGNMENTS    1  1  1  1  1  1  1  1  1  1  1  1  1  1  1  1  1  1  1  1
CENTRE ASSIGNMENTS    1  1  1  1  1  1  1  1  1  1  1  1  1  1  1  1  1  1  1  1
CENTRE ASSIGNMENTS    1  1  1  1  1  1  1  1  1  1  1  1  1  1  1  1  1
TYPE ASSIGNMENTS      1  1  1  1  1  1  1  1  1  1  1  1  1  1  1  1  1  1  1  1
TYPE ASSIGNMENTS      1  1  1  1  1  1  1  1  1  1  2  3  4  2  3  4  2  3  4  2
TYPE ASSIGNMENTS      3  4  2  3  4  2  3  4  2  3  4  2  3  4  2  3  4  2  3  4
TYPE ASSIGNMENTS      2  3  4  2  3  4  2  3  4  2  3  4  2  3  4  2  3  4  2  3
TYPE ASSIGNMENTS      4  2  3  4  2  3  4  2  3  4  2  3  4  2  3  4  2  3  4  2
TYPE ASSIGNMENTS      3  4  2  3  4  2  3  4  2  3  4  2  3  4  2  3  4  2  3  4
TYPE ASSIGNMENTS      2  3  4  2  3  4  2  3  4  2  3  4  5  8  9  6 10  7  5  8
TYPE ASSIGNMENTS      9  6 10  7  5  8  9  6 10  7  5  8  9  6 10  7  5  8  9  6
TYPE ASSIGNMENTS     10  7  5  8  9  6 10  7  5  8  9  6 10  7  5  8  9  6 10  7
TYPE ASSIGNMENTS      5  8  9  6 10  7  5  8  9  6 10  7  5  8  9  6 10  7  5  8
TYPE ASSIGNMENTS      9  6 10  7  5  8  9  6 10  7  5  8  9  6 10  7  5  8  9  6
TYPE ASSIGNMENTS     10  7  5  8  9  6 10  7  5  8  9  6 10  7  5  8  9  6 10  7
TYPE ASSIGNMENTS      5  8  9  6 10  7  5  8  9  6 10  7 11 14 15 17 20 18 12 16
TYPE ASSIGNMENTS     19 13 11 14 15 17 20 18 12 16 19 13 11 14 15 17 20 18 12 16
TYPE ASSIGNMENTS     19 13 11 14 15 17 20 18 12 16 19 13 11 14 15 17 20 18 12 16
TYPE ASSIGNMENTS     19 13 11 14 15 17 20 18 12 16 19 13 11 14 15 17 20 18 12 16
TYPE ASSIGNMENTS     19 13 11 14 15 17 20 18 12 16 19 13 11 14 15 17 20 18 12 16
TYPE ASSIGNMENTS     19 13 11 14 15 17 20 18 12 16 19 13 11 14 15 17 20 18 12 16
TYPE ASSIGNMENTS     19 13 21 24 25 30 33 31 26 34 35 28 22 27 32 29 23
EXPONENTS  7.1884163E+07 1.9197817E+07 5.7145024E+06 1.8112099E+06 6.0593229E+05
EXPONENTS  2.1488171E+05 7.8992364E+04 3.1854238E+04 1.3458345E+04 6.1401771E+03
EXPONENTS  2.8983753E+03 1.2915241E+03 6.9749410E+04 1.5358759E+04 4.6169756E+03
EXPONENTS  1.6969736E+03 6.3135243E+02 4.0127291E+02 1.6747361E+02 8.3373482E+01
EXPONENTS  4.1517804E+01 2.2264670E+01 1.1043064E+01 5.6792750E+00 2.6116060E+00
EXPONENTS  1.4719213E+00 6.5854230E-01 2.4414811E-01 1.0345025E-01 3.9792142E-02
EXPONENTS  2.6250000E+02 2.6250000E+02 2.6250000E+02 8.9693549E+06 8.9693549E+06
EXPONENTS  8.9693549E+06 1.8319039E+06 1.8319039E+06 1.8319039E+06 5.0472526E+05
EXPONENTS  5.0472526E+05 5.0472526E+05 1.5739041E+05 1.5739041E+05 1.5739041E+05
EXPONENTS  5.2829702E+04 5.2829702E+04 5.2829702E+04 1.8507158E+04 1.8507158E+04
EXPONENTS  1.8507158E+04 6.8774940E+03 6.8774940E+03 6.8774940E+03 2.7271072E+03
EXPONENTS  2.7271072E+03 2.7271072E+03 1.1328201E+03 1.1328201E+03 1.1328201E+03
EXPONENTS  5.0343898E+02 5.0343898E+02 5.0343898E+02 2.3885630E+02 2.3885630E+02
EXPONENTS  2.3885630E+02 1.1889404E+02 1.1889404E+02 1.1889404E+02 5.9854021E+01
EXPONENTS  5.9854021E+01 5.9854021E+01 1.8436848E+03 1.8436848E+03 1.8436848E+03
EXPONENTS  6.3024232E+02 6.3024232E+02 6.3024232E+02 2.8052416E+02 2.8052416E+02
EXPONENTS  2.8052416E+02 6.9641765E+01 6.9641765E+01 6.9641765E+01 3.6283203E+01
EXPONENTS  3.6283203E+01 3.6283203E+01 1.8601807E+01 1.8601807E+01 1.8601807E+01
EXPONENTS  8.1633010E+00 8.1633010E+00 8.1633010E+00 9.5428645E+01 9.5428645E+01
EXPONENTS  9.5428645E+01 3.8212155E+01 3.8212155E+01 3.8212155E+01 1.1218232E+01
EXPONENTS  1.1218232E+01 1.1218232E+01 6.0088542E+00 6.0088542E+00 6.0088542E+00
EXPONENTS  3.0215241E+00 3.0215241E+00 3.0215241E+00 5.7791053E+00 5.7791053E+00
EXPONENTS  5.7791053E+00 1.8244240E+00 1.8244240E+00 1.8244240E+00 9.6407754E-01
EXPONENTS  9.6407754E-01 9.6407754E-01 1.1255242E+00 1.1255242E+00 1.1255242E+00
EXPONENTS  4.3327204E-01 4.3327204E-01 4.3327204E-01 1.9125645E-01 1.9125645E-01
EXPONENTS  1.9125645E-01 1.0061876E-01 1.0061876E-01 1.0061876E-01 3.0516948E-02
EXPONENTS  3.0516948E-02 3.0516948E-02 6.0981446E+03 6.0981446E+03 6.0981446E+03
EXPONENTS  6.0981446E+03 6.0981446E+03 6.0981446E+03 1.7696221E+03 1.7696221E+03
EXPONENTS  1.7696221E+03 1.7696221E+03 1.7696221E+03 1.7696221E+03 6.9044316E+02
EXPONENTS  6.9044316E+02 6.9044316E+02 6.9044316E+02 6.9044316E+02 6.9044316E+02
EXPONENTS  3.0597116E+02 3.0597116E+02 3.0597116E+02 3.0597116E+02 3.0597116E+02
EXPONENTS  3.0597116E+02 1.4729064E+02 1.4729064E+02 1.4729064E+02 1.4729064E+02
EXPONENTS  1.4729064E+02 1.4729064E+02 7.3804298E+01 7.3804298E+01 7.3804298E+01
EXPONENTS  7.3804298E+01 7.3804298E+01 7.3804298E+01 3.7613953E+01 3.7613953E+01
EXPONENTS  3.7613953E+01 3.7613953E+01 3.7613953E+01 3.7613953E+01 1.8969011E+01
EXPONENTS  1.8969011E+01 1.8969011E+01 1.8969011E+01 1.8969011E+01 1.8969011E+01
EXPONENTS  3.8900000E+01 3.8900000E+01 3.8900000E+01 3.8900000E+01 3.8900000E+01
EXPONENTS  3.8900000E+01 3.2226277E+02 3.2226277E+02 3.2226277E+02 3.2226277E+02
EXPONENTS  3.2226277E+02 3.2226277E+02 1.1486896E+02 1.1486896E+02 1.1486896E+02
EXPONENTS  1.1486896E+02 1.1486896E+02 1.1486896E+02 2.4229288E+01 2.4229288E+01
EXPONENTS  2.4229288E+01 2.4229288E+01 2.4229288E+01 2.4229288E+01 9.2598173E+00
EXPONENTS  9.2598173E+00 9.2598173E+00 9.2598173E+00 9.2598173E+00 9.2598173E+00
EXPONENTS  1.4107328E+01 1.4107328E+01 1.4107328E+01 1.4107328E+01 1.4107328E+01
EXPONENTS  1.4107328E+01 5.0924656E+00 5.0924656E+00 5.0924656E+00 5.0924656E+00
EXPONENTS  5.0924656E+00 5.0924656E+00 2.5163196E+00 2.5163196E+00 2.5163196E+00
EXPONENTS  2.5163196E+00 2.5163196E+00 2.5163196E+00 1.0823082E+00 1.0823082E+00
EXPONENTS  1.0823082E+00 1.0823082E+00 1.0823082E+00 1.0823082E+00 4.4184017E-01
EXPONENTS  4.4184017E-01 4.4184017E-01 4.4184017E-01 4.4184017E-01 4.4184017E-01
EXPONENTS  1.7083663E-01 1.7083663E-01 1.7083663E-01 1.7083663E-01 1.7083663E-01
EXPONENTS  1.7083663E-01 5.9332950E-02 5.9332950E-02 5.9332950E-02 5.9332950E-02
EXPONENTS  5.9332950E-02 5.9332950E-02 7.4000000E+00 7.4000000E+00 7.4000000E+00
EXPONENTS  7.4000000E+00 7.4000000E+00 7.4000000E+00 7.4000000E+00 7.4000000E+00
EXPONENTS  7.4000000E+00 7.4000000E+00 3.7461345E+02 3.7461345E+02 3.7461345E+02
EXPONENTS  3.7461345E+02 3.7461345E+02 3.7461345E+02 3.7461345E+02 3.7461345E+02
EXPONENTS  3.7461345E+02 3.7461345E+02 1.2981826E+02 1.2981826E+02 1.2981826E+02
EXPONENTS  1.2981826E+02 1.2981826E+02 1.2981826E+02 1.2981826E+02 1.2981826E+02
EXPONENTS  1.2981826E+02 1.2981826E+02 5.5377984E+01 5.5377984E+01 5.5377984E+01
EXPONENTS  5.5377984E+01 5.5377984E+01 5.5377984E+01 5.5377984E+01 5.5377984E+01
EXPONENTS  5.5377984E+01 5.5377984E+01 2.5639440E+01 2.5639440E+01 2.5639440E+01
EXPONENTS  2.5639440E+01 2.5639440E+01 2.5639440E+01 2.5639440E+01 2.5639440E+01
EXPONENTS  2.5639440E+01 2.5639440E+01 1.2387150E+01 1.2387150E+01 1.2387150E+01
EXPONENTS  1.2387150E+01 1.2387150E+01 1.2387150E+01 1.2387150E+01 1.2387150E+01
EXPONENTS  1.2387150E+01 1.2387150E+01 5.9214827E+00 5.9214827E+00 5.9214827E+00
EXPONENTS  5.9214827E+00 5.9214827E+00 5.9214827E+00 5.9214827E+00 5.9214827E+00
EXPONENTS  5.9214827E+00 5.9214827E+00 2.7788686E+00 2.7788686E+00 2.7788686E+00
EXPONENTS  2.7788686E+00 2.7788686E+00 2.7788686E+00 2.7788686E+00 2.7788686E+00
EXPONENTS  2.7788686E+00 2.7788686E+00 1.2406000E+00 1.2406000E+00 1.2406000E+00
EXPONENTS  1.2406000E+00 1.2406000E+00 1.2406000E+00 1.2406000E+00 1.2406000E+00
EXPONENTS  1.2406000E+00 1.2406000E+00 4.8989000E-01 4.8989000E-01 4.8989000E-01
EXPONENTS  4.8989000E-01 4.8989000E-01 4.8989000E-01 4.8989000E-01 4.8989000E-01
EXPONENTS  4.8989000E-01 4.8989000E-01 1.9345000E-01 1.9345000E-01 1.9345000E-01
EXPONENTS  1.9345000E-01 1.9345000E-01 1.9345000E-01 1.9345000E-01 1.9345000E-01
EXPONENTS  1.9345000E-01 1.9345000E-01 6.2422000E-01 6.2422000E-01 6.2422000E-01
EXPONENTS  6.2422000E-01 6.2422000E-01 6.2422000E-01 6.2422000E-01 6.2422000E-01
EXPONENTS  6.2422000E-01 6.2422000E-01 6.2422000E-01 6.2422000E-01 6.2422000E-01
EXPONENTS  6.2422000E-01 6.2422000E-01
MO    1                     OCC NO =   1.00000000 ORB. ENERGY = -2631.10604503
  1.89609670E+02  1.96576020E+02  1.65576447E+02  1.41562888E+02  1.20407359E+02
  1.09410262E+02  9.77251571E+01  9.05109884E+01  8.61263159E+01  7.45448691E+01
  6.71948964E+01  4.40906409E+01  1.55298467E+00  3.41781959E+00  6.75605177E+00
  9.54440466E+00  1.71073514E+01  3.19566247E+00  6.97854251E-01 -2.38795295E-01
  1.10345018E-01 -5.08507368E-02  1.91910283E-02 -7.31640258E-03  2.65786783E-03
 -1.05706195E-03  1.99586358E-04 -3.72081489E-05  8.96435216E-06 -1.12539007E-06
  0.00000000E+00  0.00000000E+00  0.00000000E+00  0.00000000E+00  0.00000000E+00
  0.00000000E+00  0.00000000E+00  0.00000000E+00  0.00000000E+00  0.00000000E+00
  0.00000000E+00  0.00000000E+00  0.00000000E+00  0.00000000E+00  0.00000000E+00
  0.00000000E+00  0.00000000E+00  0.00000000E+00  0.00000000E+00  0.00000000E+00
  0.00000000E+00  0.00000000E+00  0.00000000E+00  0.00000000E+00  0.00000000E+00
  0.00000000E+00  0.00000000E+00  0.00000000E+00  0.00000000E+00  0.00000000E+00
  0.00000000E+00  0.00000000E+00  0.00000000E+00  0.00000000E+00  0.00000000E+00
  0.00000000E+00  0.00000000E+00  0.00000000E+00  0.00000000E+00  0.00000000E+00
  0.00000000E+00  0.00000000E+00  0.00000000E+00  0.00000000E+00  0.00000000E+00
  0.00000000E+00  0.00000000E+00  0.00000000E+00  0.00000000E+00  0.00000000E+00
  0.00000000E+00  0.00000000E+00  0.00000000E+00  0.00000000E+00  0.00000000E+00
  0.00000000E+00  0.00000000E+00  0.00000000E+00  0.00000000E+00  0.00000000E+00
  0.00000000E+00  0.00000000E+00  0.00000000E+00  0.00000000E+00  0.00000000E+00
  0.00000000E+00  0.00000000E+00  0.00000000E+00  0.00000000E+00  0.00000000E+00
  0.00000000E+00  0.00000000E+00  0.00000000E+00  0.00000000E+00  0.00000000E+00
  0.00000000E+00  0.00000000E+00  0.00000000E+00  0.00000000E+00  0.00000000E+00
  0.00000000E+00  0.00000000E+00  0.00000000E+00  0.00000000E+00  0.00000000E+00
  0.00000000E+00  0.00000000E+00  0.00000000E+00  0.00000000E+00  0.00000000E+00
  0.00000000E+00  0.00000000E+00  0.00000000E+00  0.00000000E+00  0.00000000E+00
  0.00000000E+00  0.00000000E+00  0.00000000E+00  0.00000000E+00  0.00000000E+00
  0.00000000E+00  0.00000000E+00  0.00000000E+00  0.00000000E+00  0.00000000E+00
  0.00000000E+00  0.00000000E+00  0.00000000E+00  0.00000000E+00  0.00000000E+00
  0.00000000E+00  0.00000000E+00  0.00000000E+00  0.00000000E+00  0.00000000E+00
  0.00000000E+00  0.00000000E+00  0.00000000E+00  0.00000000E+00  0.00000000E+00
  0.00000000E+00  0.00000000E+00  0.00000000E+00  0.00000000E+00  0.00000000E+00
  0.00000000E+00  0.00000000E+00  0.00000000E+00  0.00000000E+00  0.00000000E+00
  0.00000000E+00  0.00000000E+00  0.00000000E+00  0.00000000E+00  0.00000000E+00
  0.00000000E+00  0.00000000E+00  0.00000000E+00  0.00000000E+00  0.00000000E+00
  0.00000000E+00  0.00000000E+00  0.00000000E+00  0.00000000E+00  0.00000000E+00
  0.00000000E+00  0.00000000E+00  0.00000000E+00  0.00000000E+00  0.00000000E+00
  0.00000000E+00  0.00000000E+00  0.00000000E+00  0.00000000E+00  0.00000000E+00
  0.00000000E+00  0.00000000E+00  0.00000000E+00  0.00000000E+00  0.00000000E+00
  0.00000000E+00  0.00000000E+00  0.00000000E+00  0.00000000E+00  0.00000000E+00
  0.00000000E+00  0.00000000E+00  0.00000000E+00  0.00000000E+00  0.00000000E+00
  0.00000000E+00  0.00000000E+00  0.00000000E+00  0.00000000E+00  0.00000000E+00
  0.00000000E+00  0.00000000E+00  0.00000000E+00  0.00000000E+00  0.00000000E+00
  0.00000000E+00  0.00000000E+00  0.00000000E+00  0.00000000E+00  0.00000000E+00
  0.00000000E+00  0.00000000E+00  0.00000000E+00  0.00000000E+00  0.00000000E+00
  0.00000000E+00  0.00000000E+00  0.00000000E+00  0.00000000E+00  0.00000000E+00
  0.00000000E+00  0.00000000E+00  0.00000000E+00  0.00000000E+00  0.00000000E+00
  0.00000000E+00  0.00000000E+00  0.00000000E+00  0.00000000E+00  0.00000000E+00
  0.00000000E+00  0.00000000E+00  0.00000000E+00  0.00000000E+00  0.00000000E+00
  0.00000000E+00  0.00000000E+00  0.00000000E+00  0.00000000E+00  0.00000000E+00
  0.00000000E+00  0.00000000E+00  0.00000000E+00  0.00000000E+00  0.00000000E+00
  0.00000000E+00  0.00000000E+00  0.00000000E+00  0.00000000E+00  0.00000000E+00
  0.00000000E+00  0.00000000E+00  0.00000000E+00  0.00000000E+00  0.00000000E+00
  0.00000000E+00  0.00000000E+00  0.00000000E+00  0.00000000E+00  0.00000000E+00
  0.00000000E+00  0.00000000E+00  0.00000000E+00  0.00000000E+00  0.00000000E+00
  0.00000000E+00  0.00000000E+00  0.00000000E+00  0.00000000E+00  0.00000000E+00
  0.00000000E+00  0.00000000E+00  0.00000000E+00  0.00000000E+00  0.00000000E+00
  0.00000000E+00  0.00000000E+00  0.00000000E+00  0.00000000E+00  0.00000000E+00
  0.00000000E+00  0.00000000E+00  0.00000000E+00  0.00000000E+00  0.00000000E+00
  0.00000000E+00  0.00000000E+00  0.00000000E+00  0.00000000E+00  0.00000000E+00
  0.00000000E+00  0.00000000E+00  0.00000000E+00  0.00000000E+00  0.00000000E+00
  0.00000000E+00  0.00000000E+00  0.00000000E+00  0.00000000E+00  0.00000000E+00
  0.00000000E+00  0.00000000E+00  0.00000000E+00  0.00000000E+00  0.00000000E+00
  0.00000000E+00  0.00000000E+00  0.00000000E+00  0.00000000E+00  0.00000000E+00
  0.00000000E+00  0.00000000E+00  0.00000000E+00  0.00000000E+00  0.00000000E+00
  0.00000000E+00  0.00000000E+00  0.00000000E+00  0.00000000E+00  0.00000000E+00
  0.00000000E+00  0.00000000E+00  0.00000000E+00  0.00000000E+00  0.00000000E+00
  0.00000000E+00  0.00000000E+00  0.00000000E+00  0.00000000E+00  0.00000000E+00
  0.00000000E+00  0.00000000E+00  0.00000000E+00  0.00000000E+00  0.00000000E+00
  0.00000000E+00  0.00000000E+00  0.00000000E+00  0.00000000E+00  0.00000000E+00
  0.00000000E+00  0.00000000E+00  0.00000000E+00  0.00000000E+00  0.00000000E+00
  0.00000000E+00  0.00000000E+00  0.00000000E+00  0.00000000E+00  0.00000000E+00
  0.00000000E+00  0.00000000E+00  0.00000000E+00  0.00000000E+00  0.00000000E+00
  0.00000000E+00  0.00000000E+00  0.00000000E+00  0.00000000E+00  0.00000000E+00
  0.00000000E+00  0.00000000E+00  0.00000000E+00  0.00000000E+00  0.00000000E+00
  0.00000000E+00  0.00000000E+00  0.00000000E+00  0.00000000E+00  0.00000000E+00
  0.00000000E+00  0.00000000E+00
MO    2                     OCC NO =   1.00000000 ORB. ENERGY = -457.43475260
 -7.37603527E+01 -7.64703435E+01 -6.44111512E+01 -5.50695994E+01 -4.68398541E+01
 -4.25618563E+01 -3.80162155E+01 -3.52098205E+01 -3.35041322E+01 -2.89988155E+01
 -2.61395913E+01 -1.71517689E+01 -2.44559052E+00 -5.38227283E+00 -1.06392140E+01
 -1.50302228E+01 -1.68058396E+01  1.09110663E+01  1.86780930E+01  8.20278427E+00
  8.02582357E-01 -2.75138717E-02  9.17166586E-03 -3.25291624E-03  1.10656304E-03
 -4.34971281E-04  8.25978076E-05 -1.53243025E-05  3.69779206E-06 -4.64560799E-07
  0.00000000E+00  0.00000000E+00  0.00000000E+00  0.00000000E+00  0.00000000E+00
  0.00000000E+00  0.00000000E+00  0.00000000E+00  0.00000000E+00  0.00000000E+00
  0.00000000E+00  0.00000000E+00  0.00000000E+00  0.00000000E+00  0.00000000E+00
  0.00000000E+00  0.00000000E+00  0.00000000E+00  0.00000000E+00  0.00000000E+00
  0.00000000E+00  0.00000000E+00  0.00000000E+00  0.00000000E+00  0.00000000E+00
  0.00000000E+00  0.00000000E+00  0.00000000E+00  0.00000000E+00  0.00000000E+00
  0.00000000E+00  0.00000000E+00  0.00000000E+00  0.00000000E+00  0.00000000E+00
  0.00000000E+00  0.00000000E+00  0.00000000E+00  0.00000000E+00  0.00000000E+00
  0.00000000E+00  0.00000000E+00  0.00000000E+00  0.00000000E+00  0.00000000E+00
  0.00000000E+00  0.00000000E+00  0.00000000E+00  0.00000000E+00  0.00000000E+00
  0.00000000E+00  0.00000000E+00  0.00000000E+00  0.00000000E+00  0.00000000E+00
  0.00000000E+00  0.00000000E+00  0.00000000E+00  0.00000000E+00  0.00000000E+00
  0.00000000E+00  0.00000000E+00  0.00000000E+00  0.00000000E+00  0.00000000E+00
  0.00000000E+00  0.00000000E+00  0.00000000E+00  0.00000000E+00  0.00000000E+00
  0.00000000E+00  0.00000000E+00  0.00000000E+00  0.00000000E+00  0.00000000E+00
  0.00000000E+00  0.00000000E+00  0.00000000E+00  0.00000000E+00  0.00000000E+00
  0.00000000E+00  0.00000000E+00  0.00000000E+00  0.00000000E+00  0.00000000E+00
  0.00000000E+00  0.00000000E+00  0.00000000E+00  0.00000000E+00  0.00000000E+00
  0.00000000E+00  0.00000000E+00  0.00000000E+00  0.00000000E+00  0.00000000E+00
  0.00000000E+00  0.00000000E+00  0.00000000E+00  0.00000000E+00  0.00000000E+00
  0.00000000E+00  0.00000000E+00  0.00000000E+00  0.00000000E+00  0.00000000E+00
  0.00000000E+00  0.00000000E+00  0.00000000E+00  0.00000000E+00  0.00000000E+00
  0.00000000E+00  0.00000000E+00  0.00000000E+00  0.00000000E+00  0.00000000E+00
  0.00000000E+00  0.00000000E+00  0.00000000E+00  0.00000000E+00  0.00000000E+00
  0.00000000E+00  0.00000000E+00  0.00000000E+00  0.00000000E+00  0.00000000E+00
  0.00000000E+00  0.00000000E+00  0.00000000E+00  0.00000000E+00  0.00000000E+00
  0.00000000E+00  0.00000000E+00  0.00000000E+00  0.00000000E+00  0.00000000E+00
  0.00000000E+00  0.00000000E+00  0.00000000E+00  0.00000000E+00  0.00000000E+00
  0.00000000E+00  0.00000000E+00  0.00000000E+00  0.00000000E+00  0.00000000E+00
  0.00000000E+00  0.00000000E+00  0.00000000E+00  0.00000000E+00  0.00000000E+00
  0.00000000E+00  0.00000000E+00  0.00000000E+00  0.00000000E+00  0.00000000E+00
  0.00000000E+00  0.00000000E+00  0.00000000E+00  0.00000000E+00  0.00000000E+00
  0.00000000E+00  0.00000000E+00  0.00000000E+00  0.00000000E+00  0.00000000E+00
  0.00000000E+00  0.00000000E+00  0.00000000E+00  0.00000000E+00  0.00000000E+00
  0.00000000E+00  0.00000000E+00  0.00000000E+00  0.00000000E+00  0.00000000E+00
  0.00000000E+00  0.00000000E+00  0.00000000E+00  0.00000000E+00  0.00000000E+00
  0.00000000E+00  0.00000000E+00  0.00000000E+00  0.00000000E+00  0.00000000E+00
  0.00000000E+00  0.00000000E+00  0.00000000E+00  0.00000000E+00  0.00000000E+00
  0.00000000E+00  0.00000000E+00  0.00000000E+00  0.00000000E+00  0.00000000E+00
  0.00000000E+00  0.00000000E+00  0.00000000E+00  0.00000000E+00  0.00000000E+00
  0.00000000E+00  0.00000000E+00  0.00000000E+00  0.00000000E+00  0.00000000E+00
  0.00000000E+00  0.00000000E+00  0.00000000E+00  0.00000000E+00  0.00000000E+00
  0.00000000E+00  0.00000000E+00  0.00000000E+00  0.00000000E+00  0.00000000E+00
  0.00000000E+00  0.00000000E+00  0.00000000E+00  0.00000000E+00  0.00000000E+00
  0.00000000E+00  0.00000000E+00  0.00000000E+00  0.00000000E+00  0.00000000E+00
  0.00000000E+00  0.00000000E+00  0.00000000E+00  0.00000000E+00  0.00000000E+00
  0.00000000E+00  0.00000000E+00  0.00000000E+00  0.00000000E+00  0.00000000E+00
  0.00000000E+00  0.00000000E+00  0.00000000E+00  0.00000000E+00  0.00000000E+00
  0.00000000E+00  0.00000000E+00  0.00000000E+00  0.00000000E+00  0.00000000E+00
  0.00000000E+00  0.00000000E+00  0.00000000E+00  0.00000000E+00  0.00000000E+00
  0.00000000E+00  0.00000000E+00  0.00000000E+00  0.00000000E+00  0.00000000E+00
  0.00000000E+00  0.00000000E+00  0.00000000E+00  0.00000000E+00  0.00000000E+00
  0.00000000E+00  0.00000000E+00  0.00000000E+00  0.00000000E+00  0.00000000E+00
  0.00000000E+00  0.00000000E+00  0.00000000E+00  0.00000000E+00  0.00000000E+00
  0.00000000E+00  0.00000000E+00  0.00000000E+00  0.00000000E+00  0.00000000E+00
  0.00000000E+00  0.00000000E+00  0.00000000E+00  0.00000000E+00  0.00000000E+00
  0.00000000E+00  0.00000000E+00  0.00000000E+00  0.00000000E+00  0.00000000E+00
  0.00000000E+00  0.00000000E+00  0.00000000E+00  0.00000000E+00  0.00000000E+00
  0.00000000E+00  0.00000000E+00  0.00000000E+00  0.00000000E+00  0.00000000E+00
  0.00000000E+00  0.00000000E+00  0.00000000E+00  0.00000000E+00  0.00000000E+00
  0.00000000E+00  0.00000000E+00  0.00000000E+00  0.00000000E+00  0.00000000E+00
  0.00000000E+00  0.00000000E+00  0.00000000E+00  0.00000000E+00  0.00000000E+00
  0.00000000E+00  0.00000000E+00  0.00000000E+00  0.00000000E+00  0.00000000E+00
  0.00000000E+00  0.00000000E+00  0.00000000E+00  0.00000000E+00  0.00000000E+00
  0.00000000E+00  0.00000000E+00  0.00000000E+00  0.00000000E+00  0.00000000E+00
  0.00000000E+00  0.00000000E+00  0.00000000E+00  0.00000000E+00  0.00000000E+00
  0.00000000E+00  0.00000000E+00  0.00000000E+00  0.00000000E+00  0.00000000E+00
  0.00000000E+00  0.00000000E+00  0.00000000E+00  0.00000000E+00  0.00000000E+00
  0.00000000E+00  0.00000000E+00  0.00000000E+00  0.00000000E+00  0.00000000E+00
  0.00000000E+00  0.00000000E+00
MO    3                     OCC NO =   1.00000000 ORB. ENERGY = -106.50433531
  3.50965334E+01  3.63859969E+01  3.06480112E+01  2.62031290E+01  2.22872647E+01
  2.02517146E+01  1.80888150E+01  1.67534806E+01  1.59418827E+01  1.37981702E+01
  1.24376986E+01  8.16112730E+00  1.34986917E+00  2.97080158E+00  5.87242502E+00
  8.29608810E+00  9.53693948E+00 -7.81685954E+00 -1.70235475E+01 -9.38744918E+00
  4.96303946E+00  5.77927465E+00  9.08886696E-01 -3.61288259E-02  1.38395807E-02
 -5.13049834E-03  9.23903715E-04 -1.72028418E-04  4.13566500E-05 -5.19572421E-06
  0.00000000E+00  0.00000000E+00  0.00000000E+00  0.00000000E+00  0.00000000E+00
  0.00000000E+00  0.00000000E+00  0.00000000E+00  0.00000000E+00  0.00000000E+00
  0.00000000E+00  0.00000000E+00  0.00000000E+00  0.00000000E+00  0.00000000E+00
  0.00000000E+00  0.00000000E+00  0.00000000E+00  0.00000000E+00  0.00000000E+00
  0.00000000E+00  0.00000000E+00  0.00000000E+00  0.00000000E+00  0.00000000E+00
  0.00000000E+00  0.00000000E+00  0.00000000E+00  0.00000000E+00  0.00000000E+00
  0.00000000E+00  0.00000000E+00  0.00000000E+00  0.00000000E+00  0.00000000E+00
  0.00000000E+00  0.00000000E+00  0.00000000E+00  0.00000000E+00  0.00000000E+00
  0.00000000E+00  0.00000000E+00  0.00000000E+00  0.00000000E+00  0.00000000E+00
  0.00000000E+00  0.00000000E+00  0.00000000E+00  0.00000000E+00  0.00000000E+00
  0.00000000E+00  0.00000000E+00  0.00000000E+00  0.00000000E+00  0.00000000E+00
  0.00000000E+00  0.00000000E+00  0.00000000E+00  0.00000000E+00  0.00000000E+00
  0.00000000E+00  0.00000000E+00  0.00000000E+00  0.00000000E+00  0.00000000E+00
  0.00000000E+00  0.00000000E+00  0.00000000E+00  0.00000000E+00  0.00000000E+00
  0.00000000E+00  0.00000000E+00  0.00000000E+00  0.00000000E+00  0.00000000E+00
  0.00000000E+00  0.00000000E+00  0.00000000E+00  0.00000000E+00  0.00000000E+00
  0.00000000E+00  0.00000000E+00  0.00000000E+00  0.00000000E+00  0.00000000E+00
  0.00000000E+00  0.00000000E+00  0.00000000E+00  0.00000000E+00  0.00000000E+00
  0.00000000E+00  0.00000000E+00  0.00000000E+00  0.00000000E+00  0.00000000E+00
  0.00000000E+00  0.00000000E+00  0.00000000E+00  0.00000000E+00  0.00000000E+00
  0.00000000E+00  0.00000000E+00  0.00000000E+00  0.00000000E+00  0.00000000E+00
  0.00000000E+00  0.00000000E+00  0.00000000E+00  0.00000000E+00  0.00000000E+00
  0.00000000E+00  0.00000000E+00  0.00000000E+00  0.00000000E+00  0.00000000E+00
  0.00000000E+00  0.00000000E+00  0.00000000E+00  0.00000000E+00  0.00000000E+00
  0.00000000E+00  0.00000000E+00  0.00000000E+00  0.00000000E+00  0.00000000E+00
  0.00000000E+00  0.00000000E+00  0.00000000E+00  0.00000000E+00  0.00000000E+00
  0.00000000E+00  0.00000000E+00  0.00000000E+00  0.00000000E+00  0.00000000E+00
  0.00000000E+00  0.00000000E+00  0.00000000E+00  0.00000000E+00  0.00000000E+00
  0.00000000E+00  0.00000000E+00  0.00000000E+00  0.00000000E+00  0.00000000E+00
  0.00000000E+00  0.00000000E+00  0.00000000E+00  0.00000000E+00  0.00000000E+00
  0.00000000E+00  0.00000000E+00  0.00000000E+00  0.00000000E+00  0.00000000E+00
  0.00000000E+00  0.00000000E+00  0.00000000E+00  0.00000000E+00  0.00000000E+00
  0.00000000E+00  0.00000000E+00  0.00000000E+00  0.00000000E+00  0.00000000E+00
  0.00000000E+00  0.00000000E+00  0.00000000E+00  0.00000000E+00  0.00000000E+00
  0.00000000E+00  0.00000000E+00  0.00000000E+00  0.00000000E+00  0.00000000E+00
  0.00000000E+00  0.00000000E+00  0.00000000E+00  0.00000000E+00  0.00000000E+00
  0.00000000E+00  0.00000000E+00  0.00000000E+00  0.00000000E+00  0.00000000E+00
  0.00000000E+00  0.00000000E+00  0.00000000E+00  0.00000000E+00  0.00000000E+00
  0.00000000E+00  0.00000000E+00  0.00000000E+00  0.00000000E+00  0.00000000E+00
  0.00000000E+00  0.00000000E+00  0.00000000E+00  0.00000000E+00  0.00000000E+00
  0.00000000E+00  0.00000000E+00  0.00000000E+00  0.00000000E+00  0.00000000E+00
  0.00000000E+00  0.00000000E+00  0.00000000E+00  0.00000000E+00  0.00000000E+00
  0.00000000E+00  0.00000000E+00  0.00000000E+00  0.00000000E+00  0.00000000E+00
  0.00000000E+00  0.00000000E+00  0.00000000E+00  0.00000000E+00  0.00000000E+00
  0.00000000E+00  0.00000000E+00  0.00000000E+00  0.00000000E+00  0.00000000E+00
  0.00000000E+00  0.00000000E+00  0.00000000E+00  0.00000000E+00  0.00000000E+00
  0.00000000E+00  0.00000000E+00  0.00000000E+00  0.00000000E+00  0.00000000E+00
  0.00000000E+00  0.00000000E+00  0.00000000E+00  0.00000000E+00  0.00000000E+00
  0.00000000E+00  0.00000000E+00  0.00000000E+00  0.00000000E+00  0.00000000E+00
  0.00000000E+00  0.00000000E+00  0.00000000E+00  0.00000000E+00  0.00000000E+00
  0.00000000E+00  0.00000000E+00  0.00000000E+00  0.00000000E+00  0.00000000E+00
  0.00000000E+00  0.00000000E+00  0.00000000E+00  0.00000000E+00  0.00000000E+00
  0.00000000E+00  0.00000000E+00  0.00000000E+00  0.00000000E+00  0.00000000E+00
  0.00000000E+00  0.00000000E+00  0.00000000E+00  0.00000000E+00  0.00000000E+00
  0.00000000E+00  0.00000000E+00  0.00000000E+00  0.00000000E+00  0.00000000E+00
  0.00000000E+00  0.00000000E+00  0.00000000E+00  0.00000000E+00  0.00000000E+00
  0.00000000E+00  0.00000000E+00  0.00000000E+00  0.00000000E+00  0.00000000E+00
  0.00000000E+00  0.00000000E+00  0.00000000E+00  0.00000000E+00  0.00000000E+00
  0.00000000E+00  0.00000000E+00  0.00000000E+00  0.00000000E+00  0.00000000E+00
  0.00000000E+00  0.00000000E+00  0.00000000E+00  0.00000000E+00  0.00000000E+00
  0.00000000E+00  0.00000000E+00  0.00000000E+00  0.00000000E+00  0.00000000E+00
  0.00000000E+00  0.00000000E+00  0.00000000E+00  0.00000000E+00  0.00000000E+00
  0.00000000E+00  0.00000000E+00  0.00000000E+00  0.00000000E+00  0.00000000E+00
  0.00000000E+00  0.00000000E+00  0.00000000E+00  0.00000000E+00  0.00000000E+00
  0.00000000E+00  0.00000000E+00  0.00000000E+00  0.00000000E+00  0.00000000E+00
  0.00000000E+00  0.00000000E+00  0.00000000E+00  0.00000000E+00  0.00000000E+00
  0.00000000E+00  0.00000000E+00  0.00000000E+00  0.00000000E+00  0.00000000E+00
  0.00000000E+00  0.00000000E+00  0.00000000E+00  0.00000000E+00  0.00000000E+00
  0.00000000E+00  0.00000000E+00  0.00000000E+00  0.00000000E+00  0.00000000E+00
  0.00000000E+00  0.00000000E+00
MO    4                     OCC NO =   1.00000000 ORB. ENERGY = -22.53237218
 -1.74558654E+01 -1.80972023E+01 -1.52433163E+01 -1.30325775E+01 -1.10849550E+01
 -1.00725391E+01 -8.99678370E+00 -8.33263215E+00 -7.92896996E+00 -6.86275759E+00
 -6.18610363E+00 -4.05907723E+00 -6.94859269E-01 -1.52925117E+00 -3.02289217E+00
 -4.27049808E+00 -4.94426183E+00  4.25777979E+00  9.96839918E+00  5.99899049E+00
 -4.70568487E+00 -7.39404688E+00  4.76025831E-01  2.72410369E+00  4.71105171E-01
 -2.38515113E-02  4.55397308E-03 -6.90858722E-04  1.60828489E-04 -1.99044284E-05
  0.00000000E+00  0.00000000E+00  0.00000000E+00  0.00000000E+00  0.00000000E+00
  0.00000000E+00  0.00000000E+00  0.00000000E+00  0.00000000E+00  0.00000000E+00
  0.00000000E+00  0.00000000E+00  0.00000000E+00  0.00000000E+00  0.00000000E+00
  0.00000000E+00  0.00000000E+00  0.00000000E+00  0.00000000E+00  0.00000000E+00
  0.00000000E+00  0.00000000E+00  0.00000000E+00  0.00000000E+00  0.00000000E+00
  0.00000000E+00  0.00000000E+00  0.00000000E+00  0.00000000E+00  0.00000000E+00
  0.00000000E+00  0.00000000E+00  0.00000000E+00  0.00000000E+00  0.00000000E+00
  0.00000000E+00  0.00000000E+00  0.00000000E+00  0.00000000E+00  0.00000000E+00
  0.00000000E+00  0.00000000E+00  0.00000000E+00  0.00000000E+00  0.00000000E+00
  0.00000000E+00  0.00000000E+00  0.00000000E+00  0.00000000E+00  0.00000000E+00
  0.00000000E+00  0.00000000E+00  0.00000000E+00  0.00000000E+00  0.00000000E+00
  0.00000000E+00  0.00000000E+00  0.00000000E+00  0.00000000E+00  0.00000000E+00
  0.00000000E+00  0.00000000E+00  0.00000000E+00  0.00000000E+00  0.00000000E+00
  0.00000000E+00  0.00000000E+00  0.00000000E+00  0.00000000E+00  0.00000000E+00
  0.00000000E+00  0.00000000E+00  0.00000000E+00  0.00000000E+00  0.00000000E+00
  0.00000000E+00  0.00000000E+00  0.00000000E+00  0.00000000E+00  0.00000000E+00
  0.00000000E+00  0.00000000E+00  0.00000000E+00  0.00000000E+00  0.00000000E+00
  0.00000000E+00  0.00000000E+00  0.00000000E+00  0.00000000E+00  0.00000000E+00