atomref-proatoms Rn_q0_mult1_nist x2c-QZVPall
GAUSSIAN             86 MOL ORBITALS    387 PRIMITIVES        1 NUCLEI
  Rn   1    (CENTRE  1)   0.00000000  0.00000000  0.00000000  CHARGE = 86.0
CENTRE ASSIGNMENTS    1  1  1  1  1  1  1  1  1  1  1  1  1  1  1  1  1  1  1  1
CENTRE ASSIGNMENTS    1  1  1  1  1  1  1  1  1  1  1  1  1  1  1  1  1  1  1  1
CENTRE ASSIGNMENTS    1  1  1  1  1  1  1  1  1  1  1  1  1  1  1  1  1  1  1  1
CENTRE ASSIGNMENTS    1  1  1  1  1  1  1  1  1  1  1  1  1  1  1  1  1  1  1  1
CENTRE ASSIGNMENTS    1  1  1  1  1  1  1  1  1  1  1  1  1  1  1  1  1  1  1  1
CENTRE ASSIGNMENTS    1  1  1  1  1  1  1  1  1  1  1  1  1  1  1  1  1  1  1  1
CENTRE ASSIGNMENTS    1  1  1  1  1  1  1  1  1  1  1  1  1  1  1  1  1  1  1  1
CENTRE ASSIGNMENTS    1  1  1  1  1  1  1  1  1  1  1  1  1  1  1  1  1  1  1  1
CENTRE ASSIGNMENTS    1  1  1  1  1  1  1  1  1  1  1  1  1  1  1  1  1  1  1  1
CENTRE ASSIGNMENTS    1  1  1  1  1  1  1  1  1  1  1  1  1  1  1  1  1  1  1  1
CENTRE ASSIGNMENTS    1  1  1  1  1  1  1  1  1  1  1  1  1  1  1  1  1  1  1  1
CENTRE ASSIGNMENTS    1  1  1  1  1  1  1  1  1  1  1  1  1  1  1  1  1  1  1  1
CENTRE ASSIGNMENTS    1  1  1  1  1  1  1  1  1  1  1  1  1  1  1  1  1  1  1  1
CENTRE ASSIGNMENTS    1  1  1  1  1  1  1  1  1  1  1  1  1  1  1  1  1  1  1  1
CENTRE ASSIGNMENTS    1  1  1  1  1  1  1  1  1  1  1  1  1  1  1  1  1  1  1  1
CENTRE ASSIGNMENTS    1  1  1  1  1  1  1  1  1  1  1  1  1  1  1  1  1  1  1  1
CENTRE ASSIGNMENTS    1  1  1  1  1  1  1  1  1  1  1  1  1  1  1  1  1  1  1  1
CENTRE ASSIGNMENTS    1  1  1  1  1  1  1  1  1  1  1  1  1  1  1  1  1  1  1  1
CENTRE ASSIGNMENTS    1  1  1  1  1  1  1  1  1  1  1  1  1  1  1  1  1  1  1  1
CENTRE ASSIGNMENTS    1  1  1  1  1  1  1
TYPE ASSIGNMENTS      1  1  1  1  1  1  1  1  1  1  1  1  1  1  1  1  1  1  1  1
TYPE ASSIGNMENTS      1  1  1  1  1  1  1  1  1  1  2  3  4  2  3  4  2  3  4  2
TYPE ASSIGNMENTS      3  4  2  3  4  2  3  4  2  3  4  2  3  4  2  3  4  2  3  4
TYPE ASSIGNMENTS      2  3  4  2  3  4  2  3  4  2  3  4  2  3  4  2  3  4  2  3
TYPE ASSIGNMENTS      4  2  3  4  2  3  4  2  3  4  2  3  4  2  3  4  2  3  4  2
TYPE ASSIGNMENTS      3  4  2  3  4  2  3  4  2  3  4  2  3  4  2  3  4  2  3  4
TYPE ASSIGNMENTS      2  3  4  2  3  4  2  3  4  2  3  4  5  8  9  6 10  7  5  8
TYPE ASSIGNMENTS      9  6 10  7  5  8  9  6 10  7  5  8  9  6 10  7  5  8  9  6
TYPE ASSIGNMENTS     10  7  5  8  9  6 10  7  5  8  9  6 10  7  5  8  9  6 10  7
TYPE ASSIGNMENTS      5  8  9  6 10  7  5  8  9  6 10  7  5  8  9  6 10  7  5  8
TYPE ASSIGNMENTS      9  6 10  7  5  8  9  6 10  7  5  8  9  6 10  7  5  8  9  6
TYPE ASSIGNMENTS     10  7  5  8  9  6 10  7  5  8  9  6 10  7  5  8  9  6 10  7
TYPE ASSIGNMENTS      5  8  9  6 10  7  5  8  9  6 10  7 11 14 15 17 20 18 12 16
TYPE ASSIGNMENTS     19 13 11 14 15 17 20 18 12 16 19 13 11 14 15 17 20 18 12 16
TYPE ASSIGNMENTS     19 13 11 14 15 17 20 18 12 16 19 13 11 14 15 17 20 18 12 16
TYPE ASSIGNMENTS     19 13 11 14 15 17 20 18 12 16 19 13 11 14 15 17 20 18 12 16
TYPE ASSIGNMENTS     19 13 11 14 15 17 20 18 12 16 19 13 11 14 15 17 20 18 12 16
TYPE ASSIGNMENTS     19 13 11 14 15 17 20 18 12 16 19 13 11 14 15 17 20 18 12 16
TYPE ASSIGNMENTS     19 13 11 14 15 17 20 18 12 16 19 13 21 24 25 30 33 31 26 34
TYPE ASSIGNMENTS     35 28 22 27 32 29 23
EXPONENTS  6.5129630E+07 1.7548843E+07 5.3437160E+06 1.7228059E+06 5.8301163E+05
EXPONENTS  2.0855060E+05 7.8109946E+04 3.1414313E+04 1.3433479E+04 6.1300385E+03
EXPONENTS  2.9730738E+03 1.4765618E+03 7.6741021E+04 1.6920539E+04 4.9979477E+03
EXPONENTS  1.7672090E+03 7.4360878E+02 3.4415361E+02 1.7426291E+02 8.9583056E+01
EXPONENTS  4.9174947E+01 2.6344034E+01 1.2686093E+01 6.7397085E+00 2.8318869E+00
EXPONENTS  1.4808921E+00 5.5857038E-01 2.9557904E-01 1.3020382E-01 6.2044732E-02
EXPONENTS  3.8000000E+02 3.8000000E+02 3.8000000E+02 1.7952612E+07 1.7952612E+07
EXPONENTS  1.7952612E+07 3.3566164E+06 3.3566164E+06 3.3566164E+06 8.0411665E+05
EXPONENTS  8.0411665E+05 8.0411665E+05 2.2669134E+05 2.2669134E+05 2.2669134E+05
EXPONENTS  7.2691749E+04 7.2691749E+04 7.2691749E+04 2.5758000E+04 2.5758000E+04
EXPONENTS  2.5758000E+04 9.7200000E+03 9.7200000E+03 9.7200000E+03 3.8885112E+03
EXPONENTS  3.8885112E+03 3.8885112E+03 1.6260365E+03 1.6260365E+03 1.6260365E+03
EXPONENTS  7.1912440E+02 7.1912440E+02 7.1912440E+02 3.3807006E+02 3.3807006E+02
EXPONENTS  3.3807006E+02 1.6755941E+02 1.6755941E+02 1.6755941E+02 8.6382199E+01
EXPONENTS  8.6382199E+01 8.6382199E+01 2.6178127E+03 2.6178127E+03 2.6178127E+03
EXPONENTS  9.0154105E+02 9.0154105E+02 9.0154105E+02 4.0073573E+02 4.0073573E+02
EXPONENTS  4.0073573E+02 1.0020293E+02 1.0020293E+02 1.0020293E+02 5.2065607E+01
EXPONENTS  5.2065607E+01 5.2065607E+01 2.6754404E+01 2.6754404E+01 2.6754404E+01
EXPONENTS  1.1733332E+01 1.1733332E+01 1.1733332E+01 1.3398941E+02 1.3398941E+02
EXPONENTS  1.3398941E+02 5.6038689E+01 5.6038689E+01 5.6038689E+01 1.6036770E+01
EXPONENTS  1.6036770E+01 1.6036770E+01 8.7974022E+00 8.7974022E+00 8.7974022E+00
EXPONENTS  4.5701845E+00 4.5701845E+00 4.5701845E+00 9.3182873E+00 9.3182873E+00
EXPONENTS  9.3182873E+00 2.8870246E+00 2.8870246E+00 2.8870246E+00 1.4308413E+00
EXPONENTS  1.4308413E+00 1.4308413E+00 1.6487213E+00 1.6487213E+00 1.6487213E+00
EXPONENTS  5.6308574E-01 5.6308574E-01 5.6308574E-01 2.6221547E-01 2.6221547E-01
EXPONENTS  2.6221547E-01 1.0795334E-01 1.0795334E-01 1.0795334E-01 3.9942659E-02
EXPONENTS  3.9942659E-02 3.9942659E-02 8.6188421E+03 8.6188421E+03 8.6188421E+03
EXPONENTS  8.6188421E+03 8.6188421E+03 8.6188421E+03 2.5289747E+03 2.5289747E+03
EXPONENTS  2.5289747E+03 2.5289747E+03 2.5289747E+03 2.5289747E+03 9.9690853E+02
EXPONENTS  9.9690853E+02 9.9690853E+02 9.9690853E+02 9.9690853E+02 9.9690853E+02
EXPONENTS  4.4285581E+02 4.4285581E+02 4.4285581E+02 4.4285581E+02 4.4285581E+02
EXPONENTS  4.4285581E+02 2.1435477E+02 2.1435477E+02 2.1435477E+02 2.1435477E+02
EXPONENTS  2.1435477E+02 2.1435477E+02 1.0849765E+02 1.0849765E+02 1.0849765E+02
EXPONENTS  1.0849765E+02 1.0849765E+02 1.0849765E+02 5.6298453E+01 5.6298453E+01
EXPONENTS  5.6298453E+01 5.6298453E+01 5.6298453E+01 5.6298453E+01 2.9635799E+01
EXPONENTS  2.9635799E+01 2.9635799E+01 2.9635799E+01 2.9635799E+01 2.9635799E+01
EXPONENTS  6.0000000E+01 6.0000000E+01 6.0000000E+01 6.0000000E+01 6.0000000E+01
EXPONENTS  6.0000000E+01 4.3197734E+02 4.3197734E+02 4.3197734E+02 4.3197734E+02
EXPONENTS  4.3197734E+02 4.3197734E+02 1.7662548E+02 1.7662548E+02 1.7662548E+02
EXPONENTS  1.7662548E+02 1.7662548E+02 1.7662548E+02 3.5380413E+01 3.5380413E+01
EXPONENTS  3.5380413E+01 3.5380413E+01 3.5380413E+01 3.5380413E+01 1.5679618E+01
EXPONENTS  1.5679618E+01 1.5679618E+01 1.5679618E+01 1.5679618E+01 1.5679618E+01
EXPONENTS  2.1679410E+01 2.1679410E+01 2.1679410E+01 2.1679410E+01 2.1679410E+01
EXPONENTS  2.1679410E+01 8.4838291E+00 8.4838291E+00 8.4838291E+00 8.4838291E+00
EXPONENTS  8.4838291E+00 8.4838291E+00 4.3593745E+00 4.3593745E+00 4.3593745E+00
EXPONENTS  4.3593745E+00 4.3593745E+00 4.3593745E+00 2.1869309E+00 2.1869309E+00
EXPONENTS  2.1869309E+00 2.1869309E+00 2.1869309E+00 2.1869309E+00 1.0469986E+00
EXPONENTS  1.0469986E+00 1.0469986E+00 1.0469986E+00 1.0469986E+00 1.0469986E+00
EXPONENTS  4.6273562E-01 4.6273562E-01 4.6273562E-01 4.6273562E-01 4.6273562E-01
EXPONENTS  4.6273562E-01 1.5557754E-01 1.5557754E-01 1.5557754E-01 1.5557754E-01
EXPONENTS  1.5557754E-01 1.5557754E-01 7.0573205E+02 7.0573205E+02 7.0573205E+02
EXPONENTS  7.0573205E+02 7.0573205E+02 7.0573205E+02 7.0573205E+02 7.0573205E+02
EXPONENTS  7.0573205E+02 7.0573205E+02 2.4225001E+02 2.4225001E+02 2.4225001E+02
EXPONENTS  2.4225001E+02 2.4225001E+02 2.4225001E+02 2.4225001E+02 2.4225001E+02
EXPONENTS  2.4225001E+02 2.4225001E+02 1.0413016E+02 1.0413016E+02 1.0413016E+02
EXPONENTS  1.0413016E+02 1.0413016E+02 1.0413016E+02 1.0413016E+02 1.0413016E+02
EXPONENTS  1.0413016E+02 1.0413016E+02 4.9129628E+01 4.9129628E+01 4.9129628E+01
EXPONENTS  4.9129628E+01 4.9129628E+01 4.9129628E+01 4.9129628E+01 4.9129628E+01
EXPONENTS  4.9129628E+01 4.9129628E+01 2.4256819E+01 2.4256819E+01 2.4256819E+01
EXPONENTS  2.4256819E+01 2.4256819E+01 2.4256819E+01 2.4256819E+01 2.4256819E+01
EXPONENTS  2.4256819E+01 2.4256819E+01 1.2058423E+01 1.2058423E+01 1.2058423E+01
EXPONENTS  1.2058423E+01 1.2058423E+01 1.2058423E+01 1.2058423E+01 1.2058423E+01
EXPONENTS  1.2058423E+01 1.2058423E+01 6.1283946E+00 6.1283946E+00 6.1283946E+00
EXPONENTS  6.1283946E+00 6.1283946E+00 6.1283946E+00 6.1283946E+00 6.1283946E+00
EXPONENTS  6.1283946E+00 6.1283946E+00 1.2300000E+01 1.2300000E+01 1.2300000E+01
EXPONENTS  1.2300000E+01 1.2300000E+01 1.2300000E+01 1.2300000E+01 1.2300000E+01
EXPONENTS  1.2300000E+01 1.2300000E+01 3.2349862E+00 3.2349862E+00 3.2349862E+00
EXPONENTS  3.2349862E+00 3.2349862E+00 3.2349862E+00 3.2349862E+00 3.2349862E+00
EXPONENTS  3.2349862E+00 3.2349862E+00 1.6432077E+00 1.6432077E+00 1.6432077E+00
EXPONENTS  1.6432077E+00 1.6432077E+00 1.6432077E+00 1.6432077E+00 1.6432077E+00
EXPONENTS  1.6432077E+00 1.6432077E+00 5.9400000E-01 5.9400000E-01 5.9400000E-01
EXPONENTS  5.9400000E-01 5.9400000E-01 5.9400000E-01 5.9400000E-01 5.9400000E-01
EXPONENTS  5.9400000E-01 5.9400000E-01 2.6840000E-01 2.6840000E-01 2.6840000E-01
EXPONENTS  2.6840000E-01 2.6840000E-01 2.6840000E-01 2.6840000E-01 2.6840000E-01
EXPONENTS  2.6840000E-01 2.6840000E-01 4.7630000E-01 4.7630000E-01 4.7630000E-01
EXPONENTS  4.7630000E-01 4.7630000E-01 4.7630000E-01 4.7630000E-01 4.7630000E-01
EXPONENTS  4.7630000E-01 4.7630000E-01 4.7630000E-01 4.7630000E-01 4.7630000E-01
EXPONENTS  4.7630000E-01 4.7630000E-01
MO    1                     OCC NO =   1.00000000 ORB. ENERGY = -3617.39486085
  3.69472359E+02  3.63699549E+02  2.97848715E+02  2.46858408E+02  2.04416426E+02
  1.75539570E+02  1.53289902E+02  1.34918660E+02  1.20155338E+02  9.93137208E+01
  7.52459913E+01  4.43097974E+01  1.71478278E-01  3.43844309E-01  5.76426861E-01
  6.15458794E-01  1.68499713E+01  1.16599031E+00  3.00041965E-01 -2.09748937E-01
  1.17581878E-01 -4.75493929E-02  1.64285345E-02 -5.92620658E-03  1.61990469E-03
 -6.07728742E-04  1.59615437E-04 -6.81997047E-05  1.47923784E-05 -2.39920478E-06
  0.00000000E+00  0.00000000E+00  0.00000000E+00  0.00000000E+00  0.00000000E+00
  0.00000000E+00  0.00000000E+00  0.00000000E+00  0.00000000E+00  0.00000000E+00
  0.00000000E+00  0.00000000E+00  0.00000000E+00  0.00000000E+00  0.00000000E+00
  0.00000000E+00  0.00000000E+00  0.00000000E+00  0.00000000E+00  0.00000000E+00
  0.00000000E+00  0.00000000E+00  0.00000000E+00  0.00000000E+00  0.00000000E+00
  0.00000000E+00  0.00000000E+00  0.00000000E+00  0.00000000E+00  0.00000000E+00
  0.00000000E+00  0.00000000E+00  0.00000000E+00  0.00000000E+00  0.00000000E+00
  0.00000000E+00  0.00000000E+00  0.00000000E+00  0.00000000E+00  0.00000000E+00
  0.00000000E+00  0.00000000E+00  0.00000000E+00  0.00000000E+00  0.00000000E+00
  0.00000000E+00  0.00000000E+00  0.00000000E+00  0.00000000E+00  0.00000000E+00
  0.00000000E+00  0.00000000E+00  0.00000000E+00  0.00000000E+00  0.00000000E+00
  0.00000000E+00  0.00000000E+00  0.00000000E+00  0.00000000E+00  0.00000000E+00
  0.00000000E+00  0.00000000E+00  0.00000000E+00  0.00000000E+00  0.00000000E+00
  0.00000000E+00  0.00000000E+00  0.00000000E+00  0.00000000E+00  0.00000000E+00
  0.00000000E+00  0.00000000E+00  0.00000000E+00  0.00000000E+00  0.00000000E+00
  0.00000000E+00  0.00000000E+00  0.00000000E+00  0.00000000E+00  0.00000000E+00
  0.00000000E+00  0.00000000E+00  0.00000000E+00  0.00000000E+00  0.00000000E+00
  0.00000000E+00  0.00000000E+00  0.00000000E+00  0.00000000E+00  0.00000000E+00
  0.00000000E+00  0.00000000E+00  0.00000000E+00  0.00000000E+00  0.00000000E+00
  0.00000000E+00  0.00000000E+00  0.00000000E+00  0.00000000E+00  0.00000000E+00
  0.00000000E+00  0.00000000E+00  0.00000000E+00  0.00000000E+00  0.00000000E+00
  0.00000000E+00  0.00000000E+00  0.00000000E+00  0.00000000E+00  0.00000000E+00
  0.00000000E+00  0.00000000E+00  0.00000000E+00  0.00000000E+00  0.00000000E+00
  0.00000000E+00  0.00000000E+00  0.00000000E+00  0.00000000E+00  0.00000000E+00
  0.00000000E+00  0.00000000E+00  0.00000000E+00  0.00000000E+00  0.00000000E+00
  0.00000000E+00  0.00000000E+00  0.00000000E+00  0.00000000E+00  0.00000000E+00
  0.00000000E+00  0.00000000E+00  0.00000000E+00  0.00000000E+00  0.00000000E+00
  0.00000000E+00  0.00000000E+00  0.00000000E+00  0.00000000E+00  0.00000000E+00
  0.00000000E+00  0.00000000E+00  0.00000000E+00  0.00000000E+00  0.00000000E+00
  0.00000000E+00  0.00000000E+00  0.00000000E+00  0.00000000E+00  0.00000000E+00
  0.00000000E+00  0.00000000E+00  0.00000000E+00  0.00000000E+00  0.00000000E+00
  0.00000000E+00  0.00000000E+00  0.00000000E+00  0.00000000E+00  0.00000000E+00
  0.00000000E+00  0.00000000E+00  0.00000000E+00  0.00000000E+00  0.00000000E+00
  0.00000000E+00  0.00000000E+00  0.00000000E+00  0.00000000E+00  0.00000000E+00
  0.00000000E+00  0.00000000E+00  0.00000000E+00  0.00000000E+00  0.00000000E+00
  0.00000000E+00  0.00000000E+00  0.00000000E+00  0.00000000E+00  0.00000000E+00
  0.00000000E+00  0.00000000E+00  0.00000000E+00  0.00000000E+00  0.00000000E+00
  0.00000000E+00  0.00000000E+00  0.00000000E+00  0.00000000E+00  0.00000000E+00
  0.00000000E+00  0.00000000E+00  0.00000000E+00  0.00000000E+00  0.00000000E+00
  0.00000000E+00  0.00000000E+00  0.00000000E+00  0.00000000E+00  0.00000000E+00
  0.00000000E+00  0.00000000E+00  0.00000000E+00  0.00000000E+00  0.00000000E+00
  0.00000000E+00  0.00000000E+00  0.00000000E+00  0.00000000E+00  0.00000000E+00
  0.00000000E+00  0.00000000E+00  0.00000000E+00  0.00000000E+00  0.00000000E+00
  0.00000000E+00  0.00000000E+00  0.00000000E+00  0.00000000E+00  0.00000000E+00
  0.00000000E+00  0.00000000E+00  0.00000000E+00  0.00000000E+00  0.00000000E+00
  0.00000000E+00  0.00000000E+00  0.00000000E+00  0.00000000E+00  0.00000000E+00
  0.00000000E+00  0.00000000E+00  0.00000000E+00  0.00000000E+00  0.00000000E+00
  0.00000000E+00  0.00000000E+00  0.00000000E+00  0.00000000E+00  0.00000000E+00
  0.00000000E+00  0.00000000E+00  0.00000000E+00  0.00000000E+00  0.00000000E+00
  0.00000000E+00  0.00000000E+00  0.00000000E+00  0.00000000E+00  0.00000000E+00
  0.00000000E+00  0.00000000E+00  0.00000000E+00  0.00000000E+00  0.00000000E+00
  0.00000000E+00  0.00000000E+00  0.00000000E+00  0.00000000E+00  0.00000000E+00
  0.00000000E+00  0.00000000E+00  0.00000000E+00  0.00000000E+00  0.00000000E+00
  0.00000000E+00  0.00000000E+00  0.00000000E+00  0.00000000E+00  0.00000000E+00
  0.00000000E+00  0.00000000E+00  0.00000000E+00  0.00000000E+00  0.00000000E+00
  0.00000000E+00  0.00000000E+00  0.00000000E+00  0.00000000E+00  0.00000000E+00
  0.00000000E+00  0.00000000E+00  0.00000000E+00  0.00000000E+00  0.00000000E+00
  0.00000000E+00  0.00000000E+00  0.00000000E+00  0.00000000E+00  0.00000000E+00
  0.00000000E+00  0.00000000E+00  0.00000000E+00  0.00000000E+00  0.00000000E+00
  0.00000000E+00  0.00000000E+00  0.00000000E+00  0.00000000E+00  0.00000000E+00
  0.00000000E+00  0.00000000E+00  0.00000000E+00  0.00000000E+00  0.00000000E+00
  0.00000000E+00  0.00000000E+00  0.00000000E+00  0.00000000E+00  0.00000000E+00
  0.00000000E+00  0.00000000E+00  0.00000000E+00  0.00000000E+00  0.00000000E+00
  0.00000000E+00  0.00000000E+00  0.00000000E+00  0.00000000E+00  0.00000000E+00
  0.00000000E+00  0.00000000E+00  0.00000000E+00  0.00000000E+00  0.00000000E+00
  0.00000000E+00  0.00000000E+00  0.00000000E+00  0.00000000E+00  0.00000000E+00
  0.00000000E+00  0.00000000E+00  0.00000000E+00  0.00000000E+00  0.00000000E+00
  0.00000000E+00  0.00000000E+00  0.00000000E+00  0.00000000E+00  0.00000000E+00
  0.00000000E+00  0.00000000E+00  0.00000000E+00  0.00000000E+00  0.00000000E+00
  0.00000000E+00  0.00000000E+00  0.00000000E+00  0.00000000E+00  0.00000000E+00
  0.00000000E+00  0.00000000E+00  0.00000000E+00  0.00000000E+00  0.00000000E+00
  0.00000000E+00  0.00000000E+00
MO    2                     OCC NO =   1.00000000 ORB. ENERGY = -660.05942706
 -1.51885668E+02 -1.49512534E+02 -1.22442044E+02 -1.01480539E+02 -8.40331476E+01
 -7.21622176E+01 -6.30156454E+01 -5.54634473E+01 -4.93944222E+01 -4.08266827E+01
 -3.09327270E+01 -1.82152277E+01 -3.77223096E+00 -7.56399100E+00 -1.26804123E+01
 -1.35390485E+01 -5.05816601E+00  2.00842099E+01  1.82537743E+01  5.13792459E+00
  3.75878911E-02  8.05107113E-02 -2.59863774E-02  9.14602822E-03 -2.50019139E-03
  9.42805611E-04 -2.48160040E-04  1.06173845E-04 -2.30666600E-05  3.74319533E-06
  0.00000000E+00  0.00000000E+00  0.00000000E+00  0.00000000E+00  0.00000000E+00
  0.00000000E+00  0.00000000E+00  0.00000000E+00  0.00000000E+00  0.00000000E+00
  0.00000000E+00  0.00000000E+00  0.00000000E+00  0.00000000E+00  0.00000000E+00
  0.00000000E+00  0.00000000E+00  0.00000000E+00  0.00000000E+00  0.00000000E+00
  0.00000000E+00  0.00000000E+00  0.00000000E+00  0.00000000E+00  0.00000000E+00
  0.00000000E+00  0.00000000E+00  0.00000000E+00  0.00000000E+00  0.00000000E+00
  0.00000000E+00  0.00000000E+00  0.00000000E+00  0.00000000E+00  0.00000000E+00
  0.00000000E+00  0.00000000E+00  0.00000000E+00  0.00000000E+00  0.00000000E+00
  0.00000000E+00  0.00000000E+00  0.00000000E+00  0.00000000E+00  0.00000000E+00
  0.00000000E+00  0.00000000E+00  0.00000000E+00  0.00000000E+00  0.00000000E+00
  0.00000000E+00  0.00000000E+00  0.00000000E+00  0.00000000E+00  0.00000000E+00
  0.00000000E+00  0.00000000E+00  0.00000000E+00  0.00000000E+00  0.00000000E+00
  0.00000000E+00  0.00000000E+00  0.00000000E+00  0.00000000E+00  0.00000000E+00
  0.00000000E+00  0.00000000E+00  0.00000000E+00  0.00000000E+00  0.00000000E+00
  0.00000000E+00  0.00000000E+00  0.00000000E+00  0.00000000E+00  0.00000000E+00
  0.00000000E+00  0.00000000E+00  0.00000000E+00  0.00000000E+00  0.00000000E+00
  0.00000000E+00  0.00000000E+00  0.00000000E+00  0.00000000E+00  0.00000000E+00
  0.00000000E+00  0.00000000E+00  0.00000000E+00  0.00000000E+00  0.00000000E+00
  0.00000000E+00  0.00000000E+00  0.00000000E+00  0.00000000E+00  0.00000000E+00
  0.00000000E+00  0.00000000E+00  0.00000000E+00  0.00000000E+00  0.00000000E+00
  0.00000000E+00  0.00000000E+00  0.00000000E+00  0.00000000E+00  0.00000000E+00
  0.00000000E+00  0.00000000E+00  0.00000000E+00  0.00000000E+00  0.00000000E+00
  0.00000000E+00  0.00000000E+00  0.00000000E+00  0.00000000E+00  0.00000000E+00
  0.00000000E+00  0.00000000E+00  0.00000000E+00  0.00000000E+00  0.00000000E+00
  0.00000000E+00  0.00000000E+00  0.00000000E+00  0.00000000E+00  0.00000000E+00
  0.00000000E+00  0.00000000E+00  0.00000000E+00  0.00000000E+00  0.00000000E+00
  0.00000000E+00  0.00000000E+00  0.00000000E+00  0.00000000E+00  0.00000000E+00
  0.00000000E+00  0.00000000E+00  0.00000000E+00  0.00000000E+00  0.00000000E+00
  0.00000000E+00  0.00000000E+00  0.00000000E+00  0.00000000E+00  0.00000000E+00
  0.00000000E+00  0.00000000E+00  0.00000000E+00  0.00000000E+00  0.00000000E+00
  0.00000000E+00  0.00000000E+00  0.00000000E+00  0.00000000E+00  0.00000000E+00
  0.00000000E+00  0.00000000E+00  0.00000000E+00  0.00000000E+00  0.00000000E+00
  0.00000000E+00  0.00000000E+00  0.00000000E+00  0.00000000E+00  0.00000000E+00
  0.00000000E+00  0.00000000E+00  0.00000000E+00  0.00000000E+00  0.00000000E+00
  0.00000000E+00  0.00000000E+00  0.00000000E+00  0.00000000E+00  0.00000000E+00
  0.00000000E+00  0.00000000E+00  0.00000000E+00  0.00000000E+00  0.00000000E+00
  0.00000000E+00  0.00000000E+00  0.00000000E+00  0.00000000E+00  0.00000000E+00
  0.00000000E+00  0.00000000E+00  0.00000000E+00  0.00000000E+00  0.00000000E+00
  0.00000000E+00  0.00000000E+00  0.00000000E+00  0.00000000E+00  0.00000000E+00
  0.00000000E+00  0.00000000E+00  0.00000000E+00  0.00000000E+00  0.00000000E+00
  0.00000000E+00  0.00000000E+00  0.00000000E+00  0.00000000E+00  0.00000000E+00
  0.00000000E+00  0.00000000E+00  0.00000000E+00  0.00000000E+00  0.00000000E+00
  0.00000000E+00  0.00000000E+00  0.00000000E+00  0.00000000E+00  0.00000000E+00
  0.00000000E+00  0.00000000E+00  0.00000000E+00  0.00000000E+00  0.00000000E+00
  0.00000000E+00  0.00000000E+00  0.00000000E+00  0.00000000E+00  0.00000000E+00
  0.00000000E+00  0.00000000E+00  0.00000000E+00  0.00000000E+00  0.00000000E+00
  0.00000000E+00  0.00000000E+00  0.00000000E+00  0.00000000E+00  0.00000000E+00
  0.00000000E+00  0.00000000E+00  0.00000000E+00  0.00000000E+00  0.00000000E+00
  0.00000000E+00  0.00000000E+00  0.00000000E+00  0.00000000E+00  0.00000000E+00
  0.00000000E+00  0.00000000E+00  0.00000000E+00  0.00000000E+00  0.00000000E+00
  0.00000000E+00  0.00000000E+00  0.00000000E+00  0.00000000E+00  0.00000000E+00
  0.00000000E+00  0.00000000E+00  0.00000000E+00  0.00000000E+00  0.00000000E+00
  0.00000000E+00  0.00000000E+00  0.00000000E+00  0.00000000E+00  0.00000000E+00
  0.00000000E+00  0.00000000E+00  0.00000000E+00  0.00000000E+00  0.00000000E+00
  0.00000000E+00  0.00000000E+00  0.00000000E+00  0.00000000E+00  0.00000000E+00
  0.00000000E+00  0.00000000E+00  0.00000000E+00  0.00000000E+00  0.00000000E+00
  0.00000000E+00  0.00000000E+00  0.00000000E+00  0.00000000E+00  0.00000000E+00
  0.00000000E+00  0.00000000E+00  0.00000000E+00  0.00000000E+00  0.00000000E+00
  0.00000000E+00  0.00000000E+00  0.00000000E+00  0.00000000E+00  0.00000000E+00
  0.00000000E+00  0.00000000E+00  0.00000000E+00  0.00000000E+00  0.00000000E+00
  0.00000000E+00  0.00000000E+00  0.00000000E+00  0.00000000E+00  0.00000000E+00
  0.00000000E+00  0.00000000E+00  0.00000000E+00  0.00000000E+00  0.00000000E+00
  0.00000000E+00  0.00000000E+00  0.00000000E+00  0.00000000E+00  0.00000000E+00
  0.00000000E+00  0.00000000E+00  0.00000000E+00  0.00000000E+00  0.00000000E+00
  0.00000000E+00  0.00000000E+00  0.00000000E+00  0.00000000E+00  0.00000000E+00
  0.00000000E+00  0.00000000E+00  0.00000000E+00  0.00000000E+00  0.00000000E+00
  0.00000000E+00  0.00000000E+00  0.00000000E+00  0.00000000E+00  0.00000000E+00
  0.00000000E+00  0.00000000E+00  0.00000000E+00  0.00000000E+00  0.00000000E+00
  0.00000000E+00  0.00000000E+00  0.00000000E+00  0.00000000E+00  0.00000000E+00
  0.00000000E+00  0.00000000E+00  0.00000000E+00  0.00000000E+00  0.00000000E+00
  0.00000000E+00  0.00000000E+00  0.00000000E+00  0.00000000E+00  0.00000000E+00
  0.00000000E+00  0.00000000E+00
MO    3                     OCC NO =   1.00000000 ORB. ENERGY = -162.63038176
  7.36039074E+01  7.24538853E+01  5.93355056E+01  4.91775446E+01  4.07225258E+01
  3.49698643E+01  3.05374286E+01  2.68776278E+01  2.39365737E+01  1.97846408E+01
  1.49900225E+01  8.82711289E+00  2.23403826E+00  4.47964228E+00  7.50975389E+00
  8.01826630E+00  1.90286200E+00 -1.65400993E+01 -1.93629357E+01 -3.94083059E+00
  9.36060196E+00  5.06942540E+00  4.26754003E-01 -3.21234013E-02  7.01589862E-03
 -2.51071377E-03  6.35347226E-04 -2.70052890E-04  5.86279115E-05 -9.50403659E-06
  0.00000000E+00  0.00000000E+00  0.00000000E+00  0.00000000E+00  0.00000000E+00
  0.00000000E+00  0.00000000E+00  0.00000000E+00  0.00000000E+00  0.00000000E+00
  0.00000000E+00  0.00000000E+00  0.00000000E+00  0.00000000E+00  0.00000000E+00
  0.00000000E+00  0.00000000E+00  0.00000000E+00  0.00000000E+00  0.00000000E+00
  0.00000000E+00  0.00000000E+00  0.00000000E+00  0.00000000E+00  0.00000000E+00
  0.00000000E+00  0.00000000E+00  0.00000000E+00  0.00000000E+00  0.00000000E+00
  0.00000000E+00  0.00000000E+00  0.00000000E+00  0.00000000E+00  0.00000000E+00
  0.00000000E+00  0.00000000E+00  0.00000000E+00  0.00000000E+00  0.00000000E+00
  0.00000000E+00  0.00000000E+00  0.00000000E+00  0.00000000E+00  0.00000000E+00
  0.00000000E+00  0.00000000E+00  0.00000000E+00  0.00000000E+00  0.00000000E+00
  0.00000000E+00  0.00000000E+00  0.00000000E+00  0.00000000E+00  0.00000000E+00
  0.00000000E+00  0.00000000E+00  0.00000000E+00  0.00000000E+00  0.00000000E+00
  0.00000000E+00  0.00000000E+00  0.00000000E+00  0.00000000E+00  0.00000000E+00
  0.00000000E+00  0.00000000E+00  0.00000000E+00  0.00000000E+00  0.00000000E+00
  0.00000000E+00  0.00000000E+00  0.00000000E+00  0.00000000E+00  0.00000000E+00
  0.00000000E+00  0.00000000E+00  0.00000000E+00  0.00000000E+00  0.00000000E+00
  0.00000000E+00  0.00000000E+00  0.00000000E+00  0.00000000E+00  0.00000000E+00
  0.00000000E+00  0.00000000E+00  0.00000000E+00  0.00000000E+00  0.00000000E+00
  0.00000000E+00  0.00000000E+00  0.00000000E+00  0.00000000E+00  0.00000000E+00
  0.00000000E+00  0.00000000E+00  0.00000000E+00  0.00000000E+00  0.00000000E+00
  0.00000000E+00  0.00000000E+00  0.00000000E+00  0.00000000E+00  0.00000000E+00
  0.00000000E+00  0.00000000E+00  0.00000000E+00  0.00000000E+00  0.00000000E+00
  0.00000000E+00  0.00000000E+00  0.00000000E+00  0.00000000E+00  0.00000000E+00
  0.00000000E+00  0.00000000E+00  0.00000000E+00  0.00000000E+00  0.00000000E+00
  0.00000000E+00  0.00000000E+00  0.00000000E+00  0.00000000E+00  0.00000000E+00
  0.00000000E+00  0.00000000E+00  0.00000000E+00  0.00000000E+00  0.00000000E+00
  0.00000000E+00  0.00000000E+00  0.00000000E+00  0.00000000E+00  0.00000000E+00
  0.00000000E+00  0.00000000E+00  0.00000000E+00  0.00000000E+00  0.00000000E+00
  0.00000000E+00  0.00000000E+00  0.00000000E+00  0.00000000E+00  0.00000000E+00
  0.00000000E+00  0.00000000E+00  0.00000000E+00  0.00000000E+00  0.00000000E+00
  0.00000000E+00  0.00000000E+00  0.00000000E+00  0.00000000E+00  0.00000000E+00
  0.00000000E+00  0.00000000E+00  0.00000000E+00  0.00000000E+00  0.00000000E+00
  0.00000000E+00  0.00000000E+00  0.00000000E+00  0.00000000E+00  0.00000000E+00
  0.00000000E+00  0.00000000E+00  0.00000000E+00  0.00000000E+00  0.00000000E+00
  0.00000000E+00  0.00000000E+00  0.00000000E+00  0.00000000E+00  0.00000000E+00
  0.00000000E+00  0.00000000E+00  0.00000000E+00  0.00000000E+00  0.00000000E+00
  0.00000000E+00  0.00000000E+00  0.00000000E+00  0.00000000E+00  0.00000000E+00
  0.00000000E+00  0.00000000E+00  0.00000000E+00  0.00000000E+00  0.00000000E+00
  0.00000000E+00  0.00000000E+00  0.00000000E+00  0.00000000E+00  0.00000000E+00
  0.00000000E+00  0.00000000E+00  0.00000000E+00  0.00000000E+00  0.00000000E+00
  0.00000000E+00  0.00000000E+00  0.00000000E+00  0.00000000E+00  0.00000000E+00
  0.00000000E+00  0.00000000E+00  0.00000000E+00  0.00000000E+00  0.00000000E+00
  0.00000000E+00  0.00000000E+00  0.00000000E+00  0.00000000E+00  0.00000000E+00
  0.00000000E+00  0.00000000E+00  0.00000000E+00  0.00000000E+00  0.00000000E+00
  0.00000000E+00  0.00000000E+00  0.00000000E+00  0.00000000E+00  0.00000000E+00
  0.00000000E+00  0.00000000E+00  0.00000000E+00  0.00000000E+00  0.00000000E+00
  0.00000000E+00  0.00000000E+00  0.00000000E+00  0.00000000E+00  0.00000000E+00
  0.00000000E+00  0.00000000E+00  0.00000000E+00  0.00000000E+00  0.00000000E+00
  0.00000000E+00  0.00000000E+00  0.00000000E+00  0.00000000E+00  0.00000000E+00
  0.00000000E+00  0.00000000E+00  0.00000000E+00  0.00000000E+00  0.00000000E+00
  0.00000000E+00  0.00000000E+00  0.00000000E+00  0.00000000E+00  0.00000000E+00
  0.00000000E+00  0.00000000E+00  0.00000000E+00  0.00000000E+00  0.00000000E+00
  0.00000000E+00  0.00000000E+00  0.00000000E+00  0.00000000E+00  0.00000000E+00
  0.00000000E+00  0.00000000E+00  0.00000000E+00  0.00000000E+00  0.00000000E+00
  0.00000000E+00  0.00000000E+00  0.00000000E+00  0.00000000E+00  0.00000000E+00
  0.00000000E+00  0.00000000E+00  0.00000000E+00  0.00000000E+00  0.00000000E+00
  0.00000000E+00  0.00000000E+00  0.00000000E+00  0.00000000E+00  0.00000000E+00
  0.00000000E+00  0.00000000E+00  0.00000000E+00  0.00000000E+00  0.00000000E+00
  0.00000000E+00  0.00000000E+00  0.00000000E+00  0.00000000E+00  0.00000000E+00
  0.00000000E+00  0.00000000E+00  0.00000000E+00  0.00000000E+00  0.00000000E+00
  0.00000000E+00  0.00000000E+00  0.00000000E+00  0.00000000E+00  0.00000000E+00
  0.00000000E+00  0.00000000E+00  0.00000000E+00  0.00000000E+00  0.00000000E+00
  0.00000000E+00  0.00000000E+00  0.00000000E+00  0.00000000E+00  0.00000000E+00
  0.00000000E+00  0.00000000E+00  0.00000000E+00  0.00000000E+00  0.00000000E+00
  0.00000000E+00  0.00000000E+00  0.00000000E+00  0.00000000E+00  0.00000000E+00
  0.00000000E+00  0.00000000E+00  0.00000000E+00  0.00000000E+00  0.00000000E+00
  0.00000000E+00  0.00000000E+00  0.00000000E+00  0.00000000E+00  0.00000000E+00
  0.00000000E+00  0.00000000E+00  0.00000000E+00  0.00000000E+00  0.00000000E+00
  0.00000000E+00  0.00000000E+00  0.00000000E+00  0.00000000E+00  0.00000000E+00
  0.00000000E+00  0.00000000E+00  0.00000000E+00  0.00000000E+00  0.00000000E+00
  0.00000000E+00  0.00000000E+00  0.00000000E+00  0.00000000E+00  0.00000000E+00
  0.00000000E+00  0.00000000E+00
MO    4                     OCC NO =   1.00000000 ORB. ENERGY = -39.16970128
 -3.77897747E+01 -3.71993295E+01 -3.04640809E+01 -2.52487728E+01 -2.09077905E+01
 -1.79542546E+01 -1.56785501E+01 -1.37995323E+01 -1.22895341E+01 -1.01578455E+01
 -7.69618888E+00 -4.53202309E+00 -1.19966429E+00 -2.40553931E+00 -4.03268991E+00
 -4.30575783E+00 -9.18128199E-01  9.77333638E+00  1.21210133E+01  2.66011876E+00
 -1.04665666E+01 -6.59743528E+00  3.18367567E+00  2.53955780E+00  1.65097223E-01
 -1.97191392E-02  3.74390450E-03 -1.48635040E-03  3.09288099E-04 -4.97040327E-05
  0.00000000E+00  0.00000000E+00  0.00000000E+00  0.00000000E+00  0.00000000E+00
  0.00000000E+00  0.00000000E+00  0.00000000E+00  0.00000000E+00  0.00000000E+00
  0.00000000E+00  0.00000000E+00  0.00000000E+00  0.00000000E+00  0.00000000E+00
  0.00000000E+00  0.00000000E+00  0.00000000E+00  0.00000000E+00  0.00000000E+00
  0.00000000E+00  0.00000000E+00  0.00000000E+00  0.00000000E+00  0.00000000E+00
  0.00000000E+00  0.00000000E+00  0.00000000E+00  0.00000000E+00  0.00000000E+00
  0.00000000E+00  0.00000000E+00  0.00000000E+00  0.00000000E+00  0.00000000E+00
  0.00000000E+00  0.00000000E+00  0.00000000E+00  0.00000000E+00  0.00000000E+00
  0.00000000E+00  0.00000000E+00  0.00000000E+00  0.00000000E+00  0.00000000E+00