atomref-proatoms S_q0_mult3_nist x2c-QZVPall
GAUSSIAN             18 MOL ORBITALS    124 PRIMITIVES        1 NUCLEI
  S    1    (CENTRE  1)   0.00000000  0.00000000  0.00000000  CHARGE = 16.0
CENTRE ASSIGNMENTS    1  1  1  1  1  1  1  1  1  1  1  1  1  1  1  1  1  1  1  1
CENTRE ASSIGNMENTS    1  1  1  1  1  1  1  1  1  1  1  1  1  1  1  1  1  1  1  1
CENTRE ASSIGNMENTS    1  1  1  1  1  1  1  1  1  1  1  1  1  1  1  1  1  1  1  1
CENTRE ASSIGNMENTS    1  1  1  1  1  1  1  1  1  1  1  1  1  1  1  1  1  1  1  1
CENTRE ASSIGNMENTS    1  1  1  1  1  1  1  1  1  1  1  1  1  1  1  1  1  1  1  1
CENTRE ASSIGNMENTS    1  1  1  1  1  1  1  1  1  1  1  1  1  1  1  1  1  1  1  1
CENTRE ASSIGNMENTS    1  1  1  1
TYPE ASSIGNMENTS      1  1  1  1  1  1  1  1  1  1  1  1  1  1  1  1  1  1  1  1
TYPE ASSIGNMENTS      2  3  4  2  3  4  2  3  4  2  3  4  2  3  4  2  3  4  2  3
TYPE ASSIGNMENTS      4  2  3  4  2  3  4  2  3  4  2  3  4  2  3  4  2  3  4  2
TYPE ASSIGNMENTS      3  4  2  3  4  5  8  9  6 10  7  5  8  9  6 10  7  5  8  9
TYPE ASSIGNMENTS      6 10  7  5  8  9  6 10  7 11 14 15 17 20 18 12 16 19 13 11
TYPE ASSIGNMENTS     14 15 17 20 18 12 16 19 13 21 24 25 30 33 31 26 34 35 28 22
TYPE ASSIGNMENTS     27 32 29 23
EXPONENTS  1.2929787E+06 1.9072278E+05 4.3434663E+04 1.2292230E+04 4.0108144E+03
EXPONENTS  1.4482484E+03 5.6476727E+02 2.3393017E+02 1.0160982E+02 4.5873668E+01
EXPONENTS  3.9456000E+02 1.2162600E+02 4.6731242E+01 2.0945497E+01 8.2720647E+00
EXPONENTS  3.8615066E+00 1.7806276E+00 6.1112574E-01 2.7395173E-01 1.1332113E-01
EXPONENTS  3.6116836E+03 3.6116836E+03 3.6116836E+03 1.1996075E+03 1.1996075E+03
EXPONENTS  1.1996075E+03 4.2075815E+02 4.2075815E+02 4.2075815E+02 1.5584391E+02
EXPONENTS  1.5584391E+02 1.5584391E+02 6.0955242E+01 6.0955242E+01 6.0955242E+01
EXPONENTS  2.5176549E+01 2.5176549E+01 2.5176549E+01 1.0981085E+01 1.0981085E+01
EXPONENTS  1.0981085E+01 5.0577600E+00 5.0577600E+00 5.0577600E+00 2.4633521E+00
EXPONENTS  2.4633521E+00 2.4633521E+00 8.2120076E+01 8.2120076E+01 8.2120076E+01
EXPONENTS  4.9563873E+00 4.9563873E+00 4.9563873E+00 1.0819846E+00 1.0819846E+00
EXPONENTS  1.0819846E+00 4.9226048E-01 4.9226048E-01 4.9226048E-01 2.0487134E-01
EXPONENTS  2.0487134E-01 2.0487134E-01 8.0736666E-02 8.0736666E-02 8.0736666E-02
EXPONENTS  4.1590000E+00 4.1590000E+00 4.1590000E+00 4.1590000E+00 4.1590000E+00
EXPONENTS  4.1590000E+00 1.0190000E+00 1.0190000E+00 1.0190000E+00 1.0190000E+00
EXPONENTS  1.0190000E+00 1.0190000E+00 4.6400000E-01 4.6400000E-01 4.6400000E-01
EXPONENTS  4.6400000E-01 4.6400000E-01 4.6400000E-01 1.9400000E-01 1.9400000E-01
EXPONENTS  1.9400000E-01 1.9400000E-01 1.9400000E-01 1.9400000E-01 8.6900000E-01
EXPONENTS  8.6900000E-01 8.6900000E-01 8.6900000E-01 8.6900000E-01 8.6900000E-01
EXPONENTS  8.6900000E-01 8.6900000E-01 8.6900000E-01 8.6900000E-01 3.3500000E-01
EXPONENTS  3.3500000E-01 3.3500000E-01 3.3500000E-01 3.3500000E-01 3.3500000E-01
EXPONENTS  3.3500000E-01 3.3500000E-01 3.3500000E-01 3.3500000E-01 6.8300000E-01
EXPONENTS  6.8300000E-01 6.8300000E-01 6.8300000E-01 6.8300000E-01 6.8300000E-01
EXPONENTS  6.8300000E-01 6.8300000E-01 6.8300000E-01 6.8300000E-01 6.8300000E-01
EXPONENTS  6.8300000E-01 6.8300000E-01 6.8300000E-01 6.8300000E-01
MO    1                     OCC NO =   1.00000000 ORB. ENERGY = -89.36573294
  2.06616000E+00  1.67015243E+00  1.83911483E+00  2.27671723E+00  3.04094659E+00
  4.17176302E+00  5.55590709E+00  6.74117897E+00  6.69423391E+00  4.54257700E+00
 -7.99255920E-03 -2.87382644E-02 -5.23115752E-02  1.52004521E+00  9.76975701E-02
 -7.01636025E-03  1.46966273E-03 -2.37446886E-04  6.51278156E-05 -9.27467806E-06
  0.00000000E+00  0.00000000E+00  0.00000000E+00  0.00000000E+00  0.00000000E+00
  0.00000000E+00  0.00000000E+00  0.00000000E+00  0.00000000E+00  0.00000000E+00
  0.00000000E+00  0.00000000E+00  0.00000000E+00  0.00000000E+00  0.00000000E+00
  0.00000000E+00  0.00000000E+00  0.00000000E+00  0.00000000E+00  0.00000000E+00
  0.00000000E+00  0.00000000E+00  0.00000000E+00  0.00000000E+00  0.00000000E+00
  0.00000000E+00  0.00000000E+00  0.00000000E+00  0.00000000E+00  0.00000000E+00
  0.00000000E+00  0.00000000E+00  0.00000000E+00  0.00000000E+00  0.00000000E+00
  0.00000000E+00  0.00000000E+00  0.00000000E+00  0.00000000E+00  0.00000000E+00
  0.00000000E+00  0.00000000E+00  0.00000000E+00  0.00000000E+00  0.00000000E+00
  0.00000000E+00  0.00000000E+00  0.00000000E+00  0.00000000E+00  0.00000000E+00
  0.00000000E+00  0.00000000E+00  0.00000000E+00  0.00000000E+00  0.00000000E+00
  0.00000000E+00  0.00000000E+00  0.00000000E+00  0.00000000E+00  0.00000000E+00
  0.00000000E+00  0.00000000E+00  0.00000000E+00  0.00000000E+00  0.00000000E+00
  0.00000000E+00  0.00000000E+00  0.00000000E+00  0.00000000E+00  0.00000000E+00
  0.00000000E+00  0.00000000E+00  0.00000000E+00  0.00000000E+00  0.00000000E+00
  0.00000000E+00  0.00000000E+00  0.00000000E+00  0.00000000E+00  0.00000000E+00
  0.00000000E+00  0.00000000E+00  0.00000000E+00  0.00000000E+00  0.00000000E+00
  0.00000000E+00  0.00000000E+00  0.00000000E+00  0.00000000E+00  0.00000000E+00
  0.00000000E+00  0.00000000E+00  0.00000000E+00  0.00000000E+00  0.00000000E+00
  0.00000000E+00  0.00000000E+00  0.00000000E+00  0.00000000E+00  0.00000000E+00
  0.00000000E+00  0.00000000E+00  0.00000000E+00  0.00000000E+00
MO    2                     OCC NO =   1.00000000 ORB. ENERGY =  -8.11326358
 -5.82354851E-01 -4.70738650E-01 -5.18361329E-01 -6.41701187E-01 -8.57102064E-01
 -1.17582686E+00 -1.56595300E+00 -1.90002627E+00 -1.88679463E+00 -1.28034216E+00
 -1.39328295E-01 -5.00972628E-01 -9.11908491E-01 -9.33603401E-01  6.99954592E-01
  1.08671769E+00  4.09943735E-01  2.14687404E-02 -2.79215716E-03  3.60352953E-04
  0.00000000E+00  0.00000000E+00  0.00000000E+00  0.00000000E+00  0.00000000E+00
  0.00000000E+00  0.00000000E+00  0.00000000E+00  0.00000000E+00  0.00000000E+00
  0.00000000E+00  0.00000000E+00  0.00000000E+00  0.00000000E+00  0.00000000E+00
  0.00000000E+00  0.00000000E+00  0.00000000E+00  0.00000000E+00  0.00000000E+00
  0.00000000E+00  0.00000000E+00  0.00000000E+00  0.00000000E+00  0.00000000E+00
  0.00000000E+00  0.00000000E+00  0.00000000E+00  0.00000000E+00  0.00000000E+00
  0.00000000E+00  0.00000000E+00  0.00000000E+00  0.00000000E+00  0.00000000E+00
  0.00000000E+00  0.00000000E+00  0.00000000E+00  0.00000000E+00  0.00000000E+00
  0.00000000E+00  0.00000000E+00  0.00000000E+00  0.00000000E+00  0.00000000E+00
  0.00000000E+00  0.00000000E+00  0.00000000E+00  0.00000000E+00  0.00000000E+00
  0.00000000E+00  0.00000000E+00  0.00000000E+00  0.00000000E+00  0.00000000E+00
  0.00000000E+00  0.00000000E+00  0.00000000E+00  0.00000000E+00  0.00000000E+00
  0.00000000E+00  0.00000000E+00  0.00000000E+00  0.00000000E+00  0.00000000E+00
  0.00000000E+00  0.00000000E+00  0.00000000E+00  0.00000000E+00  0.00000000E+00
  0.00000000E+00  0.00000000E+00  0.00000000E+00  0.00000000E+00  0.00000000E+00
  0.00000000E+00  0.00000000E+00  0.00000000E+00  0.00000000E+00  0.00000000E+00
  0.00000000E+00  0.00000000E+00  0.00000000E+00  0.00000000E+00  0.00000000E+00
  0.00000000E+00  0.00000000E+00  0.00000000E+00  0.00000000E+00  0.00000000E+00
  0.00000000E+00  0.00000000E+00  0.00000000E+00  0.00000000E+00  0.00000000E+00
  0.00000000E+00  0.00000000E+00  0.00000000E+00  0.00000000E+00  0.00000000E+00
  0.00000000E+00  0.00000000E+00  0.00000000E+00  0.00000000E+00
MO    3                     OCC NO =   1.00000000 ORB. ENERGY =  -0.75563422
  1.78612153E-01  1.44378713E-01  1.58984909E-01  1.96814074E-01  2.62878973E-01
  3.60634014E-01  4.80288326E-01  5.82750847E-01  5.78692615E-01  3.92689559E-01
  4.73295832E-02  1.70179543E-01  3.09773752E-01  3.26081245E-01 -2.90491945E-01
 -5.11792287E-01 -3.46331499E-01  1.57721033E-01  1.85417871E-01  3.11293478E-02
  0.00000000E+00  0.00000000E+00  0.00000000E+00  0.00000000E+00  0.00000000E+00
  0.00000000E+00  0.00000000E+00  0.00000000E+00  0.00000000E+00  0.00000000E+00
  0.00000000E+00  0.00000000E+00  0.00000000E+00  0.00000000E+00  0.00000000E+00
  0.00000000E+00  0.00000000E+00  0.00000000E+00  0.00000000E+00  0.00000000E+00
  0.00000000E+00  0.00000000E+00  0.00000000E+00  0.00000000E+00  0.00000000E+00
  0.00000000E+00  0.00000000E+00  0.00000000E+00  0.00000000E+00  0.00000000E+00
  0.00000000E+00  0.00000000E+00  0.00000000E+00  0.00000000E+00  0.00000000E+00
  0.00000000E+00  0.00000000E+00  0.00000000E+00  0.00000000E+00  0.00000000E+00
  0.00000000E+00  0.00000000E+00  0.00000000E+00  0.00000000E+00  0.00000000E+00
  0.00000000E+00  0.00000000E+00  0.00000000E+00  0.00000000E+00  0.00000000E+00
  0.00000000E+00  0.00000000E+00  0.00000000E+00  0.00000000E+00  0.00000000E+00
  0.00000000E+00  0.00000000E+00  0.00000000E+00  0.00000000E+00  0.00000000E+00
  0.00000000E+00  0.00000000E+00  0.00000000E+00  0.00000000E+00  0.00000000E+00
  0.00000000E+00  0.00000000E+00  0.00000000E+00  0.00000000E+00  0.00000000E+00
  0.00000000E+00  0.00000000E+00  0.00000000E+00  0.00000000E+00  0.00000000E+00
  0.00000000E+00  0.00000000E+00  0.00000000E+00  0.00000000E+00  0.00000000E+00
  0.00000000E+00  0.00000000E+00  0.00000000E+00  0.00000000E+00  0.00000000E+00
  0.00000000E+00  0.00000000E+00  0.00000000E+00  0.00000000E+00  0.00000000E+00
  0.00000000E+00  0.00000000E+00  0.00000000E+00  0.00000000E+00  0.00000000E+00
  0.00000000E+00  0.00000000E+00  0.00000000E+00  0.00000000E+00  0.00000000E+00
  0.00000000E+00  0.00000000E+00  0.00000000E+00  0.00000000E+00
MO    4                     OCC NO =   1.00000000 ORB. ENERGY =  -6.00268534
  0.00000000E+00  0.00000000E+00  0.00000000E+00  0.00000000E+00  0.00000000E+00
  0.00000000E+00  0.00000000E+00  0.00000000E+00  0.00000000E+00  0.00000000E+00
  0.00000000E+00  0.00000000E+00  0.00000000E+00  0.00000000E+00  0.00000000E+00
  0.00000000E+00  0.00000000E+00  0.00000000E+00  0.00000000E+00  0.00000000E+00
  4.89443954E+00  0.00000000E+00  0.00000000E+00  4.70949956E+00  0.00000000E+00
  0.00000000E+00  7.24446809E+00  0.00000000E+00  0.00000000E+00  9.61918308E+00
  0.00000000E+00  0.00000000E+00  1.16347477E+01  0.00000000E+00  0.00000000E+00
  1.14413257E+01  0.00000000E+00  0.00000000E+00  8.21688214E+00  0.00000000E+00
  0.00000000E+00  3.94007159E+00  0.00000000E+00  0.00000000E+00  1.22977584E+00
  0.00000000E+00  0.00000000E+00  2.25706313E-01  0.00000000E+00  0.00000000E+00
 -1.05834415E-01  0.00000000E+00  0.00000000E+00  1.36902331E-01  0.00000000E+00
  0.00000000E+00  1.34945766E-05  0.00000000E+00  0.00000000E+00  2.09025530E-04
  0.00000000E+00  0.00000000E+00 -1.40817949E-05  0.00000000E+00  0.00000000E+00
  0.00000000E+00  0.00000000E+00  0.00000000E+00  0.00000000E+00  0.00000000E+00
  0.00000000E+00  0.00000000E+00  0.00000000E+00  0.00000000E+00  0.00000000E+00
  0.00000000E+00  0.00000000E+00  0.00000000E+00  0.00000000E+00  0.00000000E+00
  0.00000000E+00  0.00000000E+00  0.00000000E+00  0.00000000E+00  0.00000000E+00
  0.00000000E+00  0.00000000E+00  0.00000000E+00  0.00000000E+00  0.00000000E+00
  0.00000000E+00  0.00000000E+00  0.00000000E+00  0.00000000E+00  0.00000000E+00
  0.00000000E+00  0.00000000E+00  0.00000000E+00  0.00000000E+00  0.00000000E+00
  0.00000000E+00  0.00000000E+00  0.00000000E+00  0.00000000E+00  0.00000000E+00
  0.00000000E+00  0.00000000E+00  0.00000000E+00  0.00000000E+00  0.00000000E+00
  0.00000000E+00  0.00000000E+00  0.00000000E+00  0.00000000E+00  0.00000000E+00
  0.00000000E+00  0.00000000E+00  0.00000000E+00  0.00000000E+00  0.00000000E+00
  0.00000000E+00  0.00000000E+00  0.00000000E+00  0.00000000E+00
MO    5                     OCC NO =   1.00000000 ORB. ENERGY =  -6.00268534
  0.00000000E+00  0.00000000E+00  0.00000000E+00  0.00000000E+00  0.00000000E+00
  0.00000000E+00  0.00000000E+00  0.00000000E+00  0.00000000E+00  0.00000000E+00
  0.00000000E+00  0.00000000E+00  0.00000000E+00  0.00000000E+00  0.00000000E+00
  0.00000000E+00  0.00000000E+00  0.00000000E+00  0.00000000E+00  0.00000000E+00
  0.00000000E+00  4.89443954E+00  0.00000000E+00  0.00000000E+00  4.70949956E+00
  0.00000000E+00  0.00000000E+00  7.24446809E+00  0.00000000E+00  0.00000000E+00
  9.61918308E+00  0.00000000E+00  0.00000000E+00  1.16347477E+01  0.00000000E+00
  0.00000000E+00  1.14413257E+01  0.00000000E+00  0.00000000E+00  8.21688214E+00
  0.00000000E+00  0.00000000E+00  3.94007159E+00  0.00000000E+00  0.00000000E+00
  1.22977584E+00  0.00000000E+00  0.00000000E+00  2.25706313E-01  0.00000000E+00
  0.00000000E+00 -1.05834415E-01  0.00000000E+00  0.00000000E+00  1.36902331E-01
  0.00000000E+00  0.00000000E+00  1.34945766E-05  0.00000000E+00  0.00000000E+00
  2.09025530E-04  0.00000000E+00  0.00000000E+00 -1.40817949E-05  0.00000000E+00
  0.00000000E+00  0.00000000E+00  0.00000000E+00  0.00000000E+00  0.00000000E+00
  0.00000000E+00  0.00000000E+00  0.00000000E+00  0.00000000E+00  0.00000000E+00
  0.00000000E+00  0.00000000E+00  0.00000000E+00  0.00000000E+00  0.00000000E+00
  0.00000000E+00  0.00000000E+00  0.00000000E+00  0.00000000E+00  0.00000000E+00
  0.00000000E+00  0.00000000E+00  0.00000000E+00  0.00000000E+00  0.00000000E+00
  0.00000000E+00  0.00000000E+00  0.00000000E+00  0.00000000E+00  0.00000000E+00
  0.00000000E+00  0.00000000E+00  0.00000000E+00  0.00000000E+00  0.00000000E+00
  0.00000000E+00  0.00000000E+00  0.00000000E+00  0.00000000E+00  0.00000000E+00
  0.00000000E+00  0.00000000E+00  0.00000000E+00  0.00000000E+00  0.00000000E+00
  0.00000000E+00  0.00000000E+00  0.00000000E+00  0.00000000E+00  0.00000000E+00
  0.00000000E+00  0.00000000E+00  0.00000000E+00  0.00000000E+00  0.00000000E+00
  0.00000000E+00  0.00000000E+00  0.00000000E+00  0.00000000E+00
MO    6                     OCC NO =   1.00000000 ORB. ENERGY =  -6.00268534
  0.00000000E+00  0.00000000E+00  0.00000000E+00  0.00000000E+00  0.00000000E+00
  0.00000000E+00  0.00000000E+00  0.00000000E+00  0.00000000E+00  0.00000000E+00
  0.00000000E+00  0.00000000E+00  0.00000000E+00  0.00000000E+00  0.00000000E+00
  0.00000000E+00  0.00000000E+00  0.00000000E+00  0.00000000E+00  0.00000000E+00
  0.00000000E+00  0.00000000E+00  4.89443954E+00  0.00000000E+00  0.00000000E+00
  4.70949956E+00  0.00000000E+00  0.00000000E+00  7.24446809E+00  0.00000000E+00
  0.00000000E+00  9.61918308E+00  0.00000000E+00  0.00000000E+00  1.16347477E+01
  0.00000000E+00  0.00000000E+00  1.14413257E+01  0.00000000E+00  0.00000000E+00
  8.21688214E+00  0.00000000E+00  0.00000000E+00  3.94007159E+00  0.00000000E+00
  0.00000000E+00  1.22977584E+00  0.00000000E+00  0.00000000E+00  2.25706313E-01
  0.00000000E+00  0.00000000E+00 -1.05834415E-01  0.00000000E+00  0.00000000E+00
  1.36902331E-01  0.00000000E+00  0.00000000E+00  1.34945766E-05  0.00000000E+00
  0.00000000E+00  2.09025530E-04  0.00000000E+00  0.00000000E+00 -1.40817949E-05
  0.00000000E+00  0.00000000E+00  0.00000000E+00  0.00000000E+00  0.00000000E+00
  0.00000000E+00  0.00000000E+00  0.00000000E+00  0.00000000E+00  0.00000000E+00
  0.00000000E+00  0.00000000E+00  0.00000000E+00  0.00000000E+00  0.00000000E+00
  0.00000000E+00  0.00000000E+00  0.00000000E+00  0.00000000E+00  0.00000000E+00
  0.00000000E+00  0.00000000E+00  0.00000000E+00  0.00000000E+00  0.00000000E+00
  0.00000000E+00  0.00000000E+00  0.00000000E+00  0.00000000E+00  0.00000000E+00
  0.00000000E+00  0.00000000E+00  0.00000000E+00  0.00000000E+00  0.00000000E+00
  0.00000000E+00  0.00000000E+00  0.00000000E+00  0.00000000E+00  0.00000000E+00
  0.00000000E+00  0.00000000E+00  0.00000000E+00  0.00000000E+00  0.00000000E+00
  0.00000000E+00  0.00000000E+00  0.00000000E+00  0.00000000E+00  0.00000000E+00
  0.00000000E+00  0.00000000E+00  0.00000000E+00  0.00000000E+00  0.00000000E+00
  0.00000000E+00  0.00000000E+00  0.00000000E+00  0.00000000E+00
MO    7                     OCC NO =   1.00000000 ORB. ENERGY =  -0.33737427
  0.00000000E+00  0.00000000E+00  0.00000000E+00  0.00000000E+00  0.00000000E+00
  0.00000000E+00  0.00000000E+00  0.00000000E+00  0.00000000E+00  0.00000000E+00
  0.00000000E+00  0.00000000E+00  0.00000000E+00  0.00000000E+00  0.00000000E+00
  0.00000000E+00  0.00000000E+00  0.00000000E+00  0.00000000E+00  0.00000000E+00
 -1.38356969E+00  0.00000000E+00  0.00000000E+00 -1.33129049E+00  0.00000000E+00
  0.00000000E+00 -2.04788033E+00  0.00000000E+00  0.00000000E+00 -2.71916938E+00
  0.00000000E+00  0.00000000E+00 -3.28893310E+00  0.00000000E+00  0.00000000E+00
 -3.23425619E+00  0.00000000E+00  0.00000000E+00 -2.32276422E+00  0.00000000E+00
  0.00000000E+00 -1.11378710E+00  0.00000000E+00  0.00000000E+00 -3.47635427E-01
  0.00000000E+00  0.00000000E+00  8.97935102E-02  0.00000000E+00  0.00000000E+00
 -4.21044654E-02  0.00000000E+00  0.00000000E+00  1.71016670E-01  0.00000000E+00
  0.00000000E+00  2.40015182E-01  0.00000000E+00  0.00000000E+00  9.17256086E-02
  0.00000000E+00  0.00000000E+00  1.10662974E-02  0.00000000E+00  0.00000000E+00
  0.00000000E+00  0.00000000E+00  0.00000000E+00  0.00000000E+00  0.00000000E+00
  0.00000000E+00  0.00000000E+00  0.00000000E+00  0.00000000E+00  0.00000000E+00
  0.00000000E+00  0.00000000E+00  0.00000000E+00  0.00000000E+00  0.00000000E+00
  0.00000000E+00  0.00000000E+00  0.00000000E+00  0.00000000E+00  0.00000000E+00
  0.00000000E+00  0.00000000E+00  0.00000000E+00  0.00000000E+00  0.00000000E+00
  0.00000000E+00  0.00000000E+00  0.00000000E+00  0.00000000E+00  0.00000000E+00
  0.00000000E+00  0.00000000E+00  0.00000000E+00  0.00000000E+00  0.00000000E+00
  0.00000000E+00  0.00000000E+00  0.00000000E+00  0.00000000E+00  0.00000000E+00
  0.00000000E+00  0.00000000E+00  0.00000000E+00  0.00000000E+00  0.00000000E+00
  0.00000000E+00  0.00000000E+00  0.00000000E+00  0.00000000E+00  0.00000000E+00
  0.00000000E+00  0.00000000E+00  0.00000000E+00  0.00000000E+00  0.00000000E+00
  0.00000000E+00  0.00000000E+00  0.00000000E+00  0.00000000E+00
MO    8                     OCC NO =   1.00000000 ORB. ENERGY =  -0.33737427
  0.00000000E+00  0.00000000E+00  0.00000000E+00  0.00000000E+00  0.00000000E+00
  0.00000000E+00  0.00000000E+00  0.00000000E+00  0.00000000E+00  0.00000000E+00
  0.00000000E+00  0.00000000E+00  0.00000000E+00  0.00000000E+00  0.00000000E+00
  0.00000000E+00  0.00000000E+00  0.00000000E+00  0.00000000E+00  0.00000000E+00
  0.00000000E+00 -1.38356969E+00  0.00000000E+00  0.00000000E+00 -1.33129049E+00
  0.00000000E+00  0.00000000E+00 -2.04788033E+00  0.00000000E+00  0.00000000E+00
 -2.71916938E+00  0.00000000E+00  0.00000000E+00 -3.28893310E+00  0.00000000E+00
  0.00000000E+00 -3.23425619E+00  0.00000000E+00  0.00000000E+00 -2.32276422E+00
  0.00000000E+00  0.00000000E+00 -1.11378710E+00  0.00000000E+00  0.00000000E+00
 -3.47635427E-01  0.00000000E+00  0.00000000E+00  8.97935102E-02  0.00000000E+00
  0.00000000E+00 -4.21044654E-02  0.00000000E+00  0.00000000E+00  1.71016670E-01
  0.00000000E+00  0.00000000E+00  2.40015182E-01  0.00000000E+00  0.00000000E+00
  9.17256086E-02  0.00000000E+00  0.00000000E+00  1.10662974E-02  0.00000000E+00
  0.00000000E+00  0.00000000E+00  0.00000000E+00  0.00000000E+00  0.00000000E+00
  0.00000000E+00  0.00000000E+00  0.00000000E+00  0.00000000E+00  0.00000000E+00
  0.00000000E+00  0.00000000E+00  0.00000000E+00  0.00000000E+00  0.00000000E+00
  0.00000000E+00  0.00000000E+00  0.00000000E+00  0.00000000E+00  0.00000000E+00
  0.00000000E+00  0.00000000E+00  0.00000000E+00  0.00000000E+00  0.00000000E+00
  0.00000000E+00  0.00000000E+00  0.00000000E+00  0.00000000E+00  0.00000000E+00
  0.00000000E+00  0.00000000E+00  0.00000000E+00  0.00000000E+00  0.00000000E+00
  0.00000000E+00  0.00000000E+00  0.00000000E+00  0.00000000E+00  0.00000000E+00
  0.00000000E+00  0.00000000E+00  0.00000000E+00  0.00000000E+00  0.00000000E+00
  0.00000000E+00  0.00000000E+00  0.00000000E+00  0.00000000E+00  0.00000000E+00
  0.00000000E+00  0.00000000E+00  0.00000000E+00  0.00000000E+00  0.00000000E+00
  0.00000000E+00  0.00000000E+00  0.00000000E+00  0.00000000E+00
MO    9                     OCC NO =   1.00000000 ORB. ENERGY =  -0.33737427
  0.00000000E+00  0.00000000E+00  0.00000000E+00  0.00000000E+00  0.00000000E+00
  0.00000000E+00  0.00000000E+00  0.00000000E+00  0.00000000E+00  0.00000000E+00
  0.00000000E+00  0.00000000E+00  0.00000000E+00  0.00000000E+00  0.00000000E+00
  0.00000000E+00  0.00000000E+00  0.00000000E+00  0.00000000E+00  0.00000000E+00
  0.00000000E+00  0.00000000E+00 -1.38356969E+00  0.00000000E+00  0.00000000E+00
 -1.33129049E+00  0.00000000E+00  0.00000000E+00 -2.04788033E+00  0.00000000E+00
  0.00000000E+00 -2.71916938E+00  0.00000000E+00  0.00000000E+00 -3.28893310E+00
  0.00000000E+00  0.00000000E+00 -3.23425619E+00  0.00000000E+00  0.00000000E+00
 -2.32276422E+00  0.00000000E+00  0.00000000E+00 -1.11378710E+00  0.00000000E+00
  0.00000000E+00 -3.47635427E-01  0.00000000E+00  0.00000000E+00  8.97935102E-02
  0.00000000E+00  0.00000000E+00 -4.21044654E-02  0.00000000E+00  0.00000000E+00
  1.71016670E-01  0.00000000E+00  0.00000000E+00  2.40015182E-01  0.00000000E+00
  0.00000000E+00  9.17256086E-02  0.00000000E+00  0.00000000E+00  1.10662974E-02
  0.00000000E+00  0.00000000E+00  0.00000000E+00  0.00000000E+00  0.00000000E+00
  0.00000000E+00  0.00000000E+00  0.00000000E+00  0.00000000E+00  0.00000000E+00
  0.00000000E+00  0.00000000E+00  0.00000000E+00  0.00000000E+00  0.00000000E+00
  0.00000000E+00  0.00000000E+00  0.00000000E+00  0.00000000E+00  0.00000000E+00
  0.00000000E+00  0.00000000E+00  0.00000000E+00  0.00000000E+00  0.00000000E+00
  0.00000000E+00  0.00000000E+00  0.00000000E+00  0.00000000E+00  0.00000000E+00
  0.00000000E+00  0.00000000E+00  0.00000000E+00  0.00000000E+00  0.00000000E+00
  0.00000000E+00  0.00000000E+00  0.00000000E+00  0.00000000E+00  0.00000000E+00
  0.00000000E+00  0.00000000E+00  0.00000000E+00  0.00000000E+00  0.00000000E+00
  0.00000000E+00  0.00000000E+00  0.00000000E+00  0.00000000E+00  0.00000000E+00
  0.00000000E+00  0.00000000E+00  0.00000000E+00  0.00000000E+00  0.00000000E+00
  0.00000000E+00  0.00000000E+00  0.00000000E+00  0.00000000E+00
MO   11                    OCC NO =   1.00000000 ORB. ENERGY = -89.35360121
  2.06635174E+00  1.67030742E+00  1.83928550E+00  2.27692851E+00  3.04122879E+00
  4.17215015E+00  5.55642267E+00  6.74180454E+00  6.69485513E+00  4.54299854E+00
 -7.90169984E-03 -2.84115680E-02 -5.17168976E-02  1.51896876E+00  9.77418734E-02
 -7.11254195E-03  1.50259884E-03 -2.37717117E-04  6.74726948E-05 -9.39319277E-06
  0.00000000E+00  0.00000000E+00  0.00000000E+00  0.00000000E+00  0.00000000E+00
  0.00000000E+00  0.00000000E+00  0.00000000E+00  0.00000000E+00  0.00000000E+00
  0.00000000E+00  0.00000000E+00  0.00000000E+00  0.00000000E+00  0.00000000E+00
  0.00000000E+00  0.00000000E+00  0.00000000E+00  0.00000000E+00  0.00000000E+00
  0.00000000E+00  0.00000000E+00  0.00000000E+00  0.00000000E+00  0.00000000E+00
  0.00000000E+00  0.00000000E+00  0.00000000E+00  0.00000000E+00  0.00000000E+00
  0.00000000E+00  0.00000000E+00  0.00000000E+00  0.00000000E+00  0.00000000E+00
  0.00000000E+00  0.00000000E+00  0.00000000E+00  0.00000000E+00  0.00000000E+00
  0.00000000E+00  0.00000000E+00  0.00000000E+00  0.00000000E+00  0.00000000E+00
  0.00000000E+00  0.00000000E+00  0.00000000E+00  0.00000000E+00  0.00000000E+00
  0.00000000E+00  0.00000000E+00  0.00000000E+00  0.00000000E+00  0.00000000E+00
  0.00000000E+00  0.00000000E+00  0.00000000E+00  0.00000000E+00  0.00000000E+00
  0.00000000E+00  0.00000000E+00  0.00000000E+00  0.00000000E+00  0.00000000E+00
  0.00000000E+00  0.00000000E+00  0.00000000E+00  0.00000000E+00  0.00000000E+00
  0.00000000E+00  0.00000000E+00  0.00000000E+00  0.00000000E+00  0.00000000E+00
  0.00000000E+00  0.00000000E+00  0.00000000E+00  0.00000000E+00  0.00000000E+00
  0.00000000E+00  0.00000000E+00  0.00000000E+00  0.00000000E+00  0.00000000E+00
  0.00000000E+00  0.00000000E+00  0.00000000E+00  0.00000000E+00  0.00000000E+00
  0.00000000E+00  0.00000000E+00  0.00000000E+00  0.00000000E+00  0.00000000E+00
  0.00000000E+00  0.00000000E+00  0.00000000E+00  0.00000000E+00  0.00000000E+00
  0.00000000E+00  0.00000000E+00  0.00000000E+00  0.00000000E+00
MO   12                    OCC NO =   1.00000000 ORB. ENERGY =  -8.10175693
 -5.82068777E-01 -4.70507407E-01 -5.18106692E-01 -6.41385960E-01 -8.56681024E-01
 -1.17524925E+00 -1.56518375E+00 -1.89909291E+00 -1.88586777E+00 -1.27971321E+00
 -1.39170627E-01 -5.00405712E-01 -9.10876547E-01 -9.32604438E-01  6.96461800E-01
  1.08663686E+00  4.12816392E-01  2.00693115E-02 -2.61953999E-03  3.17721255E-04
  0.00000000E+00  0.00000000E+00  0.00000000E+00  0.00000000E+00  0.00000000E+00
  0.00000000E+00  0.00000000E+00  0.00000000E+00  0.00000000E+00  0.00000000E+00
  0.00000000E+00  0.00000000E+00  0.00000000E+00  0.00000000E+00  0.00000000E+00
  0.00000000E+00  0.00000000E+00  0.00000000E+00  0.00000000E+00  0.00000000E+00
  0.00000000E+00  0.00000000E+00  0.00000000E+00  0.00000000E+00  0.00000000E+00
  0.00000000E+00  0.00000000E+00  0.00000000E+00  0.00000000E+00  0.00000000E+00
  0.00000000E+00  0.00000000E+00  0.00000000E+00  0.00000000E+00  0.00000000E+00
  0.00000000E+00  0.00000000E+00  0.00000000E+00  0.00000000E+00  0.00000000E+00
  0.00000000E+00  0.00000000E+00  0.00000000E+00  0.00000000E+00  0.00000000E+00
  0.00000000E+00  0.00000000E+00  0.00000000E+00  0.00000000E+00  0.00000000E+00
  0.00000000E+00  0.00000000E+00  0.00000000E+00  0.00000000E+00  0.00000000E+00
  0.00000000E+00  0.00000000E+00  0.00000000E+00  0.00000000E+00  0.00000000E+00
  0.00000000E+00  0.00000000E+00  0.00000000E+00  0.00000000E+00  0.00000000E+00
  0.00000000E+00  0.00000000E+00  0.00000000E+00  0.00000000E+00  0.00000000E+00
  0.00000000E+00  0.00000000E+00  0.00000000E+00  0.00000000E+00  0.00000000E+00
  0.00000000E+00  0.00000000E+00  0.00000000E+00  0.00000000E+00  0.00000000E+00
  0.00000000E+00  0.00000000E+00  0.00000000E+00  0.00000000E+00  0.00000000E+00
  0.00000000E+00  0.00000000E+00  0.00000000E+00  0.00000000E+00  0.00000000E+00
  0.00000000E+00  0.00000000E+00  0.00000000E+00  0.00000000E+00  0.00000000E+00
  0.00000000E+00  0.00000000E+00  0.00000000E+00  0.00000000E+00  0.00000000E+00
  0.00000000E+00  0.00000000E+00  0.00000000E+00  0.00000000E+00
MO   13                    OCC NO =   1.00000000 ORB. ENERGY =  -0.65218513
  1.78262699E-01  1.44096236E-01  1.58673855E-01  1.96429007E-01  2.62364650E-01
  3.59928434E-01  4.79348643E-01  5.81610696E-01  5.77560403E-01  3.91921262E-01
  4.75572180E-02  1.70998033E-01  3.11263630E-01  3.21436408E-01 -2.79191414E-01
 -5.34625458E-01 -3.27826593E-01  1.60199632E-01  1.74337843E-01  3.59765246E-02
  0.00000000E+00  0.00000000E+00  0.00000000E+00  0.00000000E+00  0.00000000E+00
  0.00000000E+00  0.00000000E+00  0.00000000E+00  0.00000000E+00  0.00000000E+00
  0.00000000E+00  0.00000000E+00  0.00000000E+00  0.00000000E+00  0.00000000E+00
  0.00000000E+00  0.00000000E+00  0.00000000E+00  0.00000000E+00  0.00000000E+00
  0.00000000E+00  0.00000000E+00  0.00000000E+00  0.00000000E+00  0.00000000E+00
  0.00000000E+00  0.00000000E+00  0.00000000E+00  0.00000000E+00  0.00000000E+00
  0.00000000E+00  0.00000000E+00  0.00000000E+00  0.00000000E+00  0.00000000E+00
  0.00000000E+00  0.00000000E+00  0.00000000E+00  0.00000000E+00  0.00000000E+00
  0.00000000E+00  0.00000000E+00  0.00000000E+00  0.00000000E+00  0.00000000E+00
  0.00000000E+00  0.00000000E+00  0.00000000E+00  0.00000000E+00  0.00000000E+00
  0.00000000E+00  0.00000000E+00  0.00000000E+00  0.00000000E+00  0.00000000E+00
  0.00000000E+00  0.00000000E+00  0.00000000E+00  0.00000000E+00  0.00000000E+00
  0.00000000E+00  0.00000000E+00  0.00000000E+00  0.00000000E+00  0.00000000E+00
  0.00000000E+00  0.00000000E+00  0.00000000E+00  0.00000000E+00  0.00000000E+00
  0.00000000E+00  0.00000000E+00  0.00000000E+00  0.00000000E+00  0.00000000E+00
  0.00000000E+00  0.00000000E+00  0.00000000E+00  0.00000000E+00  0.00000000E+00
  0.00000000E+00  0.00000000E+00  0.00000000E+00  0.00000000E+00  0.00000000E+00
  0.00000000E+00  0.00000000E+00  0.00000000E+00  0.00000000E+00  0.00000000E+00
  0.00000000E+00  0.00000000E+00  0.00000000E+00  0.00000000E+00  0.00000000E+00
  0.00000000E+00  0.00000000E+00  0.00000000E+00  0.00000000E+00  0.00000000E+00
  0.00000000E+00  0.00000000E+00  0.00000000E+00  0.00000000E+00
MO   14                    OCC NO =   1.00000000 ORB. ENERGY =  -5.98438681
  0.00000000E+00  0.00000000E+00  0.00000000E+00  0.00000000E+00  0.00000000E+00
  0.00000000E+00  0.00000000E+00  0.00000000E+00  0.00000000E+00  0.00000000E+00
  0.00000000E+00  0.00000000E+00  0.00000000E+00  0.00000000E+00  0.00000000E+00
  0.00000000E+00  0.00000000E+00  0.00000000E+00  0.00000000E+00  0.00000000E+00
  4.88715531E+00  0.00000000E+00  0.00000000E+00  4.70249058E+00  0.00000000E+00
  0.00000000E+00  7.23368640E+00  0.00000000E+00  0.00000000E+00  9.60486719E+00
  0.00000000E+00  0.00000000E+00  1.16174321E+01  0.00000000E+00  0.00000000E+00
  1.14242980E+01  0.00000000E+00  0.00000000E+00  8.20465325E+00  0.00000000E+00
  0.00000000E+00  3.93420772E+00  0.00000000E+00  0.00000000E+00  1.22794561E+00
  0.00000000E+00  0.00000000E+00  2.01504055E-01  0.00000000E+00  0.00000000E+00
 -9.44858987E-02  0.00000000E+00  0.00000000E+00  1.39993833E-01  0.00000000E+00
  0.00000000E+00 -1.55097664E-03  0.00000000E+00  0.00000000E+00  4.44905501E-04
  0.00000000E+00  0.00000000E+00 -3.79222593E-05  0.00000000E+00  0.00000000E+00
  0.00000000E+00  0.00000000E+00  0.00000000E+00  0.00000000E+00  0.00000000E+00
  0.00000000E+00  0.00000000E+00  0.00000000E+00  0.00000000E+00  0.00000000E+00
  0.00000000E+00  0.00000000E+00  0.00000000E+00  0.00000000E+00  0.00000000E+00
  0.00000000E+00  0.00000000E+00  0.00000000E+00  0.00000000E+00  0.00000000E+00
  0.00000000E+00  0.00000000E+00  0.00000000E+00  0.00000000E+00  0.00000000E+00
  0.00000000E+00  0.00000000E+00  0.00000000E+00  0.00000000E+00  0.00000000E+00
  0.00000000E+00  0.00000000E+00  0.00000000E+00  0.00000000E+00  0.00000000E+00