atomref-proatoms Sc_q0_mult2_nist x2c-QZVPall
GAUSSIAN             25 MOL ORBITALS    183 PRIMITIVES        1 NUCLEI
  Sc   1    (CENTRE  1)   0.00000000  0.00000000  0.00000000  CHARGE = 21.0
CENTRE ASSIGNMENTS    1  1  1  1  1  1  1  1  1  1  1  1  1  1  1  1  1  1  1  1
CENTRE ASSIGNMENTS    1  1  1  1  1  1  1  1  1  1  1  1  1  1  1  1  1  1  1  1
CENTRE ASSIGNMENTS    1  1  1  1  1  1  1  1  1  1  1  1  1  1  1  1  1  1  1  1
CENTRE ASSIGNMENTS    1  1  1  1  1  1  1  1  1  1  1  1  1  1  1  1  1  1  1  1
CENTRE ASSIGNMENTS    1  1  1  1  1  1  1  1  1  1  1  1  1  1  1  1  1  1  1  1
CENTRE ASSIGNMENTS    1  1  1  1  1  1  1  1  1  1  1  1  1  1  1  1  1  1  1  1
CENTRE ASSIGNMENTS    1  1  1  1  1  1  1  1  1  1  1  1  1  1  1  1  1  1  1  1
CENTRE ASSIGNMENTS    1  1  1  1  1  1  1  1  1  1  1  1  1  1  1  1  1  1  1  1
CENTRE ASSIGNMENTS    1  1  1  1  1  1  1  1  1  1  1  1  1  1  1  1  1  1  1  1
CENTRE ASSIGNMENTS    1  1  1
TYPE ASSIGNMENTS      1  1  1  1  1  1  1  1  1  1  1  1  1  1  1  1  1  1  1  1
TYPE ASSIGNMENTS      1  1  1  1  2  3  4  2  3  4  2  3  4  2  3  4  2  3  4  2
TYPE ASSIGNMENTS      3  4  2  3  4  2  3  4  2  3  4  2  3  4  2  3  4  2  3  4
TYPE ASSIGNMENTS      2  3  4  2  3  4  2  3  4  2  3  4  2  3  4  2  3  4  2  3
TYPE ASSIGNMENTS      4  2  3  4  5  8  9  6 10  7  5  8  9  6 10  7  5  8  9  6
TYPE ASSIGNMENTS     10  7  5  8  9  6 10  7  5  8  9  6 10  7  5  8  9  6 10  7
TYPE ASSIGNMENTS      5  8  9  6 10  7  5  8  9  6 10  7  5  8  9  6 10  7 11 14
TYPE ASSIGNMENTS     15 17 20 18 12 16 19 13 11 14 15 17 20 18 12 16 19 13 11 14
TYPE ASSIGNMENTS     15 17 20 18 12 16 19 13 21 24 25 30 33 31 26 34 35 28 22 27
TYPE ASSIGNMENTS     32 29 23
EXPONENTS  3.1883380E+06 4.4105266E+05 9.8221908E+04 2.7589507E+04 8.9675221E+03
EXPONENTS  3.2262105E+03 1.2538531E+03 5.1829823E+02 2.2458974E+02 1.0125344E+02
EXPONENTS  4.6883863E+01 9.5091857E+02 2.9267031E+02 1.1153671E+02 4.7673240E+01
EXPONENTS  2.1213817E+01 9.7915333E+00 4.6055785E+00 1.9918654E+00 9.5971205E-01
EXPONENTS  4.2678589E-01 1.0039151E-01 5.6409873E-02 2.5529183E-02 1.5525272E+04
EXPONENTS  1.5525272E+04 1.5525272E+04 3.9059062E+03 3.9059062E+03 3.9059062E+03
EXPONENTS  1.1182700E+03 1.1182700E+03 1.1182700E+03 3.6434584E+02 3.6434584E+02
EXPONENTS  3.6434584E+02 1.3509000E+02 1.3509000E+02 1.3509000E+02 5.6688296E+01
EXPONENTS  5.6688296E+01 5.6688296E+01 2.5326557E+01 2.5326557E+01 2.5326557E+01
EXPONENTS  1.1727822E+01 1.1727822E+01 1.1727822E+01 5.5730258E+00 5.5730258E+00
EXPONENTS  5.5730258E+00 2.5861354E+00 2.5861354E+00 2.5861354E+00 8.4000000E+00
EXPONENTS  8.4000000E+00 8.4000000E+00 3.5853031E+01 3.5853031E+01 3.5853031E+01
EXPONENTS  1.2346938E+01 1.2346938E+01 1.2346938E+01 2.3921362E+00 2.3921362E+00
EXPONENTS  2.3921362E+00 1.1031217E+00 1.1031217E+00 1.1031217E+00 5.0089833E-01
EXPONENTS  5.0089833E-01 5.0089833E-01 2.0838919E-01 2.0838919E-01 2.0838919E-01
EXPONENTS  1.0100000E-01 1.0100000E-01 1.0100000E-01 4.8000000E-02 4.8000000E-02
EXPONENTS  4.8000000E-02 2.3000000E-02 2.3000000E-02 2.3000000E-02 7.3556898E+01
EXPONENTS  7.3556898E+01 7.3556898E+01 7.3556898E+01 7.3556898E+01 7.3556898E+01
EXPONENTS  2.1771802E+01 2.1771802E+01 2.1771802E+01 2.1771802E+01 2.1771802E+01
EXPONENTS  2.1771802E+01 7.9244707E+00 7.9244707E+00 7.9244707E+00 7.9244707E+00
EXPONENTS  7.9244707E+00 7.9244707E+00 3.1859853E+00 3.1859853E+00 3.1859853E+00
EXPONENTS  3.1859853E+00 3.1859853E+00 3.1859853E+00 1.3433215E+00 1.3433215E+00
EXPONENTS  1.3433215E+00 1.3433215E+00 1.3433215E+00 1.3433215E+00 5.6158488E-01
EXPONENTS  5.6158488E-01 5.6158488E-01 5.6158488E-01 5.6158488E-01 5.6158488E-01
EXPONENTS  2.2752798E-01 2.2752798E-01 2.2752798E-01 2.2752798E-01 2.2752798E-01
EXPONENTS  2.2752798E-01 8.4965677E-02 8.4965677E-02 8.4965677E-02 8.4965677E-02
EXPONENTS  8.4965677E-02 8.4965677E-02 3.5000000E-02 3.5000000E-02 3.5000000E-02
EXPONENTS  3.5000000E-02 3.5000000E-02 3.5000000E-02 1.4810000E+00 1.4810000E+00
EXPONENTS  1.4810000E+00 1.4810000E+00 1.4810000E+00 1.4810000E+00 1.4810000E+00
EXPONENTS  1.4810000E+00 1.4810000E+00 1.4810000E+00 3.4500000E-01 3.4500000E-01
EXPONENTS  3.4500000E-01 3.4500000E-01 3.4500000E-01 3.4500000E-01 3.4500000E-01
EXPONENTS  3.4500000E-01 3.4500000E-01 3.4500000E-01 1.1000000E-01 1.1000000E-01
EXPONENTS  1.1000000E-01 1.1000000E-01 1.1000000E-01 1.1000000E-01 1.1000000E-01
EXPONENTS  1.1000000E-01 1.1000000E-01 1.1000000E-01 2.4700000E-01 2.4700000E-01
EXPONENTS  2.4700000E-01 2.4700000E-01 2.4700000E-01 2.4700000E-01 2.4700000E-01
EXPONENTS  2.4700000E-01 2.4700000E-01 2.4700000E-01 2.4700000E-01 2.4700000E-01
EXPONENTS  2.4700000E-01 2.4700000E-01 2.4700000E-01
MO    1                     OCC NO =   1.00000000 ORB. ENERGY = -162.83910676
  4.45072078E+00  3.31036821E+00  3.26466789E+00  3.69943287E+00  4.60808726E+00
  6.03529011E+00  7.87818731E+00  9.72405180E+00  1.02497875E+01  7.83723230E+00
  3.22717856E+00  3.07704196E-02  1.16255929E-01  2.56423214E-01  2.55532383E-01
  5.22709056E-01 -2.92364856E-02  1.35630792E-02 -4.55444830E-03  1.56216684E-03
 -3.30294243E-04  5.86321997E-05 -3.12287465E-05  4.43435842E-06  0.00000000E+00
  0.00000000E+00  0.00000000E+00  0.00000000E+00  0.00000000E+00  0.00000000E+00
  0.00000000E+00  0.00000000E+00  0.00000000E+00  0.00000000E+00  0.00000000E+00
  0.00000000E+00  0.00000000E+00  0.00000000E+00  0.00000000E+00  0.00000000E+00
  0.00000000E+00  0.00000000E+00  0.00000000E+00  0.00000000E+00  0.00000000E+00
  0.00000000E+00  0.00000000E+00  0.00000000E+00  0.00000000E+00  0.00000000E+00
  0.00000000E+00  0.00000000E+00  0.00000000E+00  0.00000000E+00  0.00000000E+00
  0.00000000E+00  0.00000000E+00  0.00000000E+00  0.00000000E+00  0.00000000E+00
  0.00000000E+00  0.00000000E+00  0.00000000E+00  0.00000000E+00  0.00000000E+00
  0.00000000E+00  0.00000000E+00  0.00000000E+00  0.00000000E+00  0.00000000E+00
  0.00000000E+00  0.00000000E+00  0.00000000E+00  0.00000000E+00  0.00000000E+00
  0.00000000E+00  0.00000000E+00  0.00000000E+00  0.00000000E+00  0.00000000E+00
  0.00000000E+00  0.00000000E+00  0.00000000E+00  0.00000000E+00  0.00000000E+00
  0.00000000E+00  0.00000000E+00  0.00000000E+00  0.00000000E+00  0.00000000E+00
  0.00000000E+00  0.00000000E+00  0.00000000E+00  0.00000000E+00  0.00000000E+00
  0.00000000E+00  0.00000000E+00  0.00000000E+00  0.00000000E+00  0.00000000E+00
  0.00000000E+00  0.00000000E+00  0.00000000E+00  0.00000000E+00  0.00000000E+00
  0.00000000E+00  0.00000000E+00  0.00000000E+00  0.00000000E+00  0.00000000E+00
  0.00000000E+00  0.00000000E+00  0.00000000E+00  0.00000000E+00  0.00000000E+00
  0.00000000E+00  0.00000000E+00  0.00000000E+00  0.00000000E+00  0.00000000E+00
  0.00000000E+00  0.00000000E+00  0.00000000E+00  0.00000000E+00  0.00000000E+00
  0.00000000E+00  0.00000000E+00  0.00000000E+00  0.00000000E+00  0.00000000E+00
  0.00000000E+00  0.00000000E+00  0.00000000E+00  0.00000000E+00  0.00000000E+00
  0.00000000E+00  0.00000000E+00  0.00000000E+00  0.00000000E+00  0.00000000E+00
  0.00000000E+00  0.00000000E+00  0.00000000E+00  0.00000000E+00  0.00000000E+00
  0.00000000E+00  0.00000000E+00  0.00000000E+00  0.00000000E+00  0.00000000E+00
  0.00000000E+00  0.00000000E+00  0.00000000E+00  0.00000000E+00  0.00000000E+00
  0.00000000E+00  0.00000000E+00  0.00000000E+00  0.00000000E+00  0.00000000E+00
  0.00000000E+00  0.00000000E+00  0.00000000E+00  0.00000000E+00  0.00000000E+00
  0.00000000E+00  0.00000000E+00  0.00000000E+00  0.00000000E+00  0.00000000E+00
  0.00000000E+00  0.00000000E+00  0.00000000E+00  0.00000000E+00  0.00000000E+00
  0.00000000E+00  0.00000000E+00  0.00000000E+00  0.00000000E+00  0.00000000E+00
  0.00000000E+00  0.00000000E+00  0.00000000E+00
MO    2                     OCC NO =   1.00000000 ORB. ENERGY = -17.91640955
 -1.33319820E+00 -9.91609481E-01 -9.77920105E-01 -1.10815247E+00 -1.38033678E+00
 -1.80785052E+00 -2.35988408E+00 -2.91280647E+00 -3.07028881E+00 -2.34761614E+00
 -9.66690307E-01 -1.69240709E-01 -6.39420458E-01 -1.41035602E+00 -1.40545636E+00
  2.92241654E-01  1.96573446E+00  1.12891979E+00  1.35970881E-01 -8.25483637E-03
  1.70135094E-03 -2.64974354E-04  1.40622696E-04 -1.99332824E-05  0.00000000E+00
  0.00000000E+00  0.00000000E+00  0.00000000E+00  0.00000000E+00  0.00000000E+00
  0.00000000E+00  0.00000000E+00  0.00000000E+00  0.00000000E+00  0.00000000E+00
  0.00000000E+00  0.00000000E+00  0.00000000E+00  0.00000000E+00  0.00000000E+00
  0.00000000E+00  0.00000000E+00  0.00000000E+00  0.00000000E+00  0.00000000E+00
  0.00000000E+00  0.00000000E+00  0.00000000E+00  0.00000000E+00  0.00000000E+00
  0.00000000E+00  0.00000000E+00  0.00000000E+00  0.00000000E+00  0.00000000E+00
  0.00000000E+00  0.00000000E+00  0.00000000E+00  0.00000000E+00  0.00000000E+00
  0.00000000E+00  0.00000000E+00  0.00000000E+00  0.00000000E+00  0.00000000E+00
  0.00000000E+00  0.00000000E+00  0.00000000E+00  0.00000000E+00  0.00000000E+00
  0.00000000E+00  0.00000000E+00  0.00000000E+00  0.00000000E+00  0.00000000E+00
  0.00000000E+00  0.00000000E+00  0.00000000E+00  0.00000000E+00  0.00000000E+00
  0.00000000E+00  0.00000000E+00  0.00000000E+00  0.00000000E+00  0.00000000E+00
  0.00000000E+00  0.00000000E+00  0.00000000E+00  0.00000000E+00  0.00000000E+00
  0.00000000E+00  0.00000000E+00  0.00000000E+00  0.00000000E+00  0.00000000E+00
  0.00000000E+00  0.00000000E+00  0.00000000E+00  0.00000000E+00  0.00000000E+00
  0.00000000E+00  0.00000000E+00  0.00000000E+00  0.00000000E+00  0.00000000E+00
  0.00000000E+00  0.00000000E+00  0.00000000E+00  0.00000000E+00  0.00000000E+00
  0.00000000E+00  0.00000000E+00  0.00000000E+00  0.00000000E+00  0.00000000E+00
  0.00000000E+00  0.00000000E+00  0.00000000E+00  0.00000000E+00  0.00000000E+00
  0.00000000E+00  0.00000000E+00  0.00000000E+00  0.00000000E+00  0.00000000E+00
  0.00000000E+00  0.00000000E+00  0.00000000E+00  0.00000000E+00  0.00000000E+00
  0.00000000E+00  0.00000000E+00  0.00000000E+00  0.00000000E+00  0.00000000E+00
  0.00000000E+00  0.00000000E+00  0.00000000E+00  0.00000000E+00  0.00000000E+00
  0.00000000E+00  0.00000000E+00  0.00000000E+00  0.00000000E+00  0.00000000E+00
  0.00000000E+00  0.00000000E+00  0.00000000E+00  0.00000000E+00  0.00000000E+00
  0.00000000E+00  0.00000000E+00  0.00000000E+00  0.00000000E+00  0.00000000E+00
  0.00000000E+00  0.00000000E+00  0.00000000E+00  0.00000000E+00  0.00000000E+00
  0.00000000E+00  0.00000000E+00  0.00000000E+00  0.00000000E+00  0.00000000E+00
  0.00000000E+00  0.00000000E+00  0.00000000E+00  0.00000000E+00  0.00000000E+00
  0.00000000E+00  0.00000000E+00  0.00000000E+00  0.00000000E+00  0.00000000E+00
  0.00000000E+00  0.00000000E+00  0.00000000E+00  0.00000000E+00  0.00000000E+00
  0.00000000E+00  0.00000000E+00  0.00000000E+00
MO    3                     OCC NO =   1.00000000 ORB. ENERGY =  -2.20667582
  4.80659990E-01  3.57506487E-01  3.52571036E-01  3.99523910E-01  4.97654938E-01
  6.51787120E-01  8.50812626E-01  1.05015859E+00  1.10693593E+00  8.46389649E-01
  3.48522339E-01  7.12638055E-02  2.69246893E-01  5.93872110E-01  5.91808961E-01
 -1.38499799E-01 -1.07926264E+00 -9.80302388E-01  6.06844169E-02  4.96785597E-01
  1.66066347E-01  4.69846425E-03 -1.73193776E-03  2.06906826E-04  0.00000000E+00
  0.00000000E+00  0.00000000E+00  0.00000000E+00  0.00000000E+00  0.00000000E+00
  0.00000000E+00  0.00000000E+00  0.00000000E+00  0.00000000E+00  0.00000000E+00
  0.00000000E+00  0.00000000E+00  0.00000000E+00  0.00000000E+00  0.00000000E+00
  0.00000000E+00  0.00000000E+00  0.00000000E+00  0.00000000E+00  0.00000000E+00
  0.00000000E+00  0.00000000E+00  0.00000000E+00  0.00000000E+00  0.00000000E+00
  0.00000000E+00  0.00000000E+00  0.00000000E+00  0.00000000E+00  0.00000000E+00
  0.00000000E+00  0.00000000E+00  0.00000000E+00  0.00000000E+00  0.00000000E+00
  0.00000000E+00  0.00000000E+00  0.00000000E+00  0.00000000E+00  0.00000000E+00
  0.00000000E+00  0.00000000E+00  0.00000000E+00  0.00000000E+00  0.00000000E+00
  0.00000000E+00  0.00000000E+00  0.00000000E+00  0.00000000E+00  0.00000000E+00
  0.00000000E+00  0.00000000E+00  0.00000000E+00  0.00000000E+00  0.00000000E+00
  0.00000000E+00  0.00000000E+00  0.00000000E+00  0.00000000E+00  0.00000000E+00
  0.00000000E+00  0.00000000E+00  0.00000000E+00  0.00000000E+00  0.00000000E+00
  0.00000000E+00  0.00000000E+00  0.00000000E+00  0.00000000E+00  0.00000000E+00
  0.00000000E+00  0.00000000E+00  0.00000000E+00  0.00000000E+00  0.00000000E+00
  0.00000000E+00  0.00000000E+00  0.00000000E+00  0.00000000E+00  0.00000000E+00
  0.00000000E+00  0.00000000E+00  0.00000000E+00  0.00000000E+00  0.00000000E+00
  0.00000000E+00  0.00000000E+00  0.00000000E+00  0.00000000E+00  0.00000000E+00
  0.00000000E+00  0.00000000E+00  0.00000000E+00  0.00000000E+00  0.00000000E+00
  0.00000000E+00  0.00000000E+00  0.00000000E+00  0.00000000E+00  0.00000000E+00
  0.00000000E+00  0.00000000E+00  0.00000000E+00  0.00000000E+00  0.00000000E+00
  0.00000000E+00  0.00000000E+00  0.00000000E+00  0.00000000E+00  0.00000000E+00
  0.00000000E+00  0.00000000E+00  0.00000000E+00  0.00000000E+00  0.00000000E+00
  0.00000000E+00  0.00000000E+00  0.00000000E+00  0.00000000E+00  0.00000000E+00
  0.00000000E+00  0.00000000E+00  0.00000000E+00  0.00000000E+00  0.00000000E+00
  0.00000000E+00  0.00000000E+00  0.00000000E+00  0.00000000E+00  0.00000000E+00
  0.00000000E+00  0.00000000E+00  0.00000000E+00  0.00000000E+00  0.00000000E+00
  0.00000000E+00  0.00000000E+00  0.00000000E+00  0.00000000E+00  0.00000000E+00
  0.00000000E+00  0.00000000E+00  0.00000000E+00  0.00000000E+00  0.00000000E+00
  0.00000000E+00  0.00000000E+00  0.00000000E+00  0.00000000E+00  0.00000000E+00
  0.00000000E+00  0.00000000E+00  0.00000000E+00  0.00000000E+00  0.00000000E+00
  0.00000000E+00  0.00000000E+00  0.00000000E+00
MO    4                     OCC NO =   1.00000000 ORB. ENERGY =  -0.18307867
 -1.30099996E-01 -9.67660996E-02 -9.54302234E-02 -1.08138934E-01 -1.34700010E-01
 -1.76418889E-01 -2.30289022E-01 -2.84245892E-01 -2.99613788E-01 -2.29091857E-01
 -9.43343648E-02 -1.97073066E-02 -7.44575880E-02 -1.64229508E-01 -1.63658965E-01
  4.04148640E-02  3.04814548E-01  3.05243815E-01 -3.14290318E-02 -2.03096230E-01
 -1.15909133E-01  4.65214097E-02  4.97335894E-02  9.76566219E-03  0.00000000E+00
  0.00000000E+00  0.00000000E+00  0.00000000E+00  0.00000000E+00  0.00000000E+00
  0.00000000E+00  0.00000000E+00  0.00000000E+00  0.00000000E+00  0.00000000E+00
  0.00000000E+00  0.00000000E+00  0.00000000E+00  0.00000000E+00  0.00000000E+00
  0.00000000E+00  0.00000000E+00  0.00000000E+00  0.00000000E+00  0.00000000E+00
  0.00000000E+00  0.00000000E+00  0.00000000E+00  0.00000000E+00  0.00000000E+00
  0.00000000E+00  0.00000000E+00  0.00000000E+00  0.00000000E+00  0.00000000E+00
  0.00000000E+00  0.00000000E+00  0.00000000E+00  0.00000000E+00  0.00000000E+00
  0.00000000E+00  0.00000000E+00  0.00000000E+00  0.00000000E+00  0.00000000E+00
  0.00000000E+00  0.00000000E+00  0.00000000E+00  0.00000000E+00  0.00000000E+00
  0.00000000E+00  0.00000000E+00  0.00000000E+00  0.00000000E+00  0.00000000E+00
  0.00000000E+00  0.00000000E+00  0.00000000E+00  0.00000000E+00  0.00000000E+00
  0.00000000E+00  0.00000000E+00  0.00000000E+00  0.00000000E+00  0.00000000E+00
  0.00000000E+00  0.00000000E+00  0.00000000E+00  0.00000000E+00  0.00000000E+00
  0.00000000E+00  0.00000000E+00  0.00000000E+00  0.00000000E+00  0.00000000E+00
  0.00000000E+00  0.00000000E+00  0.00000000E+00  0.00000000E+00  0.00000000E+00
  0.00000000E+00  0.00000000E+00  0.00000000E+00  0.00000000E+00  0.00000000E+00
  0.00000000E+00  0.00000000E+00  0.00000000E+00  0.00000000E+00  0.00000000E+00
  0.00000000E+00  0.00000000E+00  0.00000000E+00  0.00000000E+00  0.00000000E+00
  0.00000000E+00  0.00000000E+00  0.00000000E+00  0.00000000E+00  0.00000000E+00
  0.00000000E+00  0.00000000E+00  0.00000000E+00  0.00000000E+00  0.00000000E+00
  0.00000000E+00  0.00000000E+00  0.00000000E+00  0.00000000E+00  0.00000000E+00
  0.00000000E+00  0.00000000E+00  0.00000000E+00  0.00000000E+00  0.00000000E+00
  0.00000000E+00  0.00000000E+00  0.00000000E+00  0.00000000E+00  0.00000000E+00
  0.00000000E+00  0.00000000E+00  0.00000000E+00  0.00000000E+00  0.00000000E+00
  0.00000000E+00  0.00000000E+00  0.00000000E+00  0.00000000E+00  0.00000000E+00
  0.00000000E+00  0.00000000E+00  0.00000000E+00  0.00000000E+00  0.00000000E+00
  0.00000000E+00  0.00000000E+00  0.00000000E+00  0.00000000E+00  0.00000000E+00
  0.00000000E+00  0.00000000E+00  0.00000000E+00  0.00000000E+00  0.00000000E+00
  0.00000000E+00  0.00000000E+00  0.00000000E+00  0.00000000E+00  0.00000000E+00
  0.00000000E+00  0.00000000E+00  0.00000000E+00  0.00000000E+00  0.00000000E+00
  0.00000000E+00  0.00000000E+00  0.00000000E+00  0.00000000E+00  0.00000000E+00
  0.00000000E+00  0.00000000E+00  0.00000000E+00
MO    5                     OCC NO =   1.00000000 ORB. ENERGY = -14.64918148
  0.00000000E+00  0.00000000E+00  0.00000000E+00  0.00000000E+00  0.00000000E+00
  0.00000000E+00  0.00000000E+00  0.00000000E+00  0.00000000E+00  0.00000000E+00
  0.00000000E+00  0.00000000E+00  0.00000000E+00  0.00000000E+00  0.00000000E+00
  0.00000000E+00  0.00000000E+00  0.00000000E+00  0.00000000E+00  0.00000000E+00
  0.00000000E+00  0.00000000E+00  0.00000000E+00  0.00000000E+00  1.33236549E+01
  0.00000000E+00  0.00000000E+00  1.23754236E+01  0.00000000E+00  0.00000000E+00
  1.65667384E+01  0.00000000E+00  0.00000000E+00  2.20626918E+01  0.00000000E+00
  0.00000000E+00  2.56114729E+01  0.00000000E+00  0.00000000E+00  2.57055629E+01
  0.00000000E+00  0.00000000E+00  2.07781465E+01  0.00000000E+00  0.00000000E+00
  1.17237213E+01  0.00000000E+00  0.00000000E+00  3.75755333E+00  0.00000000E+00
  0.00000000E+00  4.03404242E-01  0.00000000E+00  0.00000000E+00 -4.98188699E-02
  0.00000000E+00  0.00000000E+00 -6.33599093E-03  0.00000000E+00  0.00000000E+00
 -7.30522977E-03  0.00000000E+00  0.00000000E+00  1.03099193E-02  0.00000000E+00
  0.00000000E+00  8.36032455E-03  0.00000000E+00  0.00000000E+00  2.57631509E-03
  0.00000000E+00  0.00000000E+00 -1.62512986E-03  0.00000000E+00  0.00000000E+00
  6.38763296E-04  0.00000000E+00  0.00000000E+00 -1.47669718E-04  0.00000000E+00
  0.00000000E+00  1.89202698E-05  0.00000000E+00  0.00000000E+00  0.00000000E+00
  0.00000000E+00  0.00000000E+00  0.00000000E+00  0.00000000E+00  0.00000000E+00
  0.00000000E+00  0.00000000E+00  0.00000000E+00  0.00000000E+00  0.00000000E+00
  0.00000000E+00  0.00000000E+00  0.00000000E+00  0.00000000E+00  0.00000000E+00
  0.00000000E+00  0.00000000E+00  0.00000000E+00  0.00000000E+00  0.00000000E+00
  0.00000000E+00  0.00000000E+00  0.00000000E+00  0.00000000E+00  0.00000000E+00
  0.00000000E+00  0.00000000E+00  0.00000000E+00  0.00000000E+00  0.00000000E+00
  0.00000000E+00  0.00000000E+00  0.00000000E+00  0.00000000E+00  0.00000000E+00
  0.00000000E+00  0.00000000E+00  0.00000000E+00  0.00000000E+00  0.00000000E+00
  0.00000000E+00  0.00000000E+00  0.00000000E+00  0.00000000E+00  0.00000000E+00
  0.00000000E+00  0.00000000E+00  0.00000000E+00  0.00000000E+00  0.00000000E+00
  0.00000000E+00  0.00000000E+00  0.00000000E+00  0.00000000E+00  0.00000000E+00
  0.00000000E+00  0.00000000E+00  0.00000000E+00  0.00000000E+00  0.00000000E+00
  0.00000000E+00  0.00000000E+00  0.00000000E+00  0.00000000E+00  0.00000000E+00
  0.00000000E+00  0.00000000E+00  0.00000000E+00  0.00000000E+00  0.00000000E+00
  0.00000000E+00  0.00000000E+00  0.00000000E+00  0.00000000E+00  0.00000000E+00
  0.00000000E+00  0.00000000E+00  0.00000000E+00  0.00000000E+00  0.00000000E+00
  0.00000000E+00  0.00000000E+00  0.00000000E+00  0.00000000E+00  0.00000000E+00
  0.00000000E+00  0.00000000E+00  0.00000000E+00  0.00000000E+00  0.00000000E+00
  0.00000000E+00  0.00000000E+00  0.00000000E+00  0.00000000E+00  0.00000000E+00
  0.00000000E+00  0.00000000E+00  0.00000000E+00
MO    6                     OCC NO =   1.00000000 ORB. ENERGY = -14.64918148
  0.00000000E+00  0.00000000E+00  0.00000000E+00  0.00000000E+00  0.00000000E+00
  0.00000000E+00  0.00000000E+00  0.00000000E+00  0.00000000E+00  0.00000000E+00
  0.00000000E+00  0.00000000E+00  0.00000000E+00  0.00000000E+00  0.00000000E+00
  0.00000000E+00  0.00000000E+00  0.00000000E+00  0.00000000E+00  0.00000000E+00
  0.00000000E+00  0.00000000E+00  0.00000000E+00  0.00000000E+00  0.00000000E+00
  1.33236549E+01  0.00000000E+00  0.00000000E+00  1.23754236E+01  0.00000000E+00
  0.00000000E+00  1.65667384E+01  0.00000000E+00  0.00000000E+00  2.20626918E+01
  0.00000000E+00  0.00000000E+00  2.56114729E+01  0.00000000E+00  0.00000000E+00
  2.57055629E+01  0.00000000E+00  0.00000000E+00  2.07781465E+01  0.00000000E+00
  0.00000000E+00  1.17237213E+01  0.00000000E+00  0.00000000E+00  3.75755333E+00
  0.00000000E+00  0.00000000E+00  4.03404242E-01  0.00000000E+00  0.00000000E+00
 -4.98188699E-02  0.00000000E+00  0.00000000E+00 -6.33599093E-03  0.00000000E+00
  0.00000000E+00 -7.30522977E-03  0.00000000E+00  0.00000000E+00  1.03099193E-02
  0.00000000E+00  0.00000000E+00  8.36032455E-03  0.00000000E+00  0.00000000E+00
  2.57631509E-03  0.00000000E+00  0.00000000E+00 -1.62512986E-03  0.00000000E+00
  0.00000000E+00  6.38763296E-04  0.00000000E+00  0.00000000E+00 -1.47669718E-04
  0.00000000E+00  0.00000000E+00  1.89202698E-05  0.00000000E+00  0.00000000E+00
  0.00000000E+00  0.00000000E+00  0.00000000E+00  0.00000000E+00  0.00000000E+00
  0.00000000E+00  0.00000000E+00  0.00000000E+00  0.00000000E+00  0.00000000E+00
  0.00000000E+00  0.00000000E+00  0.00000000E+00  0.00000000E+00  0.00000000E+00
  0.00000000E+00  0.00000000E+00  0.00000000E+00  0.00000000E+00  0.00000000E+00
  0.00000000E+00  0.00000000E+00  0.00000000E+00  0.00000000E+00  0.00000000E+00
  0.00000000E+00  0.00000000E+00  0.00000000E+00  0.00000000E+00  0.00000000E+00
  0.00000000E+00  0.00000000E+00  0.00000000E+00  0.00000000E+00  0.00000000E+00
  0.00000000E+00  0.00000000E+00  0.00000000E+00  0.00000000E+00  0.00000000E+00
  0.00000000E+00  0.00000000E+00  0.00000000E+00  0.00000000E+00  0.00000000E+00
  0.00000000E+00  0.00000000E+00  0.00000000E+00  0.00000000E+00  0.00000000E+00
  0.00000000E+00  0.00000000E+00  0.00000000E+00  0.00000000E+00  0.00000000E+00
  0.00000000E+00  0.00000000E+00  0.00000000E+00  0.00000000E+00  0.00000000E+00
  0.00000000E+00  0.00000000E+00  0.00000000E+00  0.00000000E+00  0.00000000E+00
  0.00000000E+00  0.00000000E+00  0.00000000E+00  0.00000000E+00  0.00000000E+00
  0.00000000E+00  0.00000000E+00  0.00000000E+00  0.00000000E+00  0.00000000E+00
  0.00000000E+00  0.00000000E+00  0.00000000E+00  0.00000000E+00  0.00000000E+00
  0.00000000E+00  0.00000000E+00  0.00000000E+00  0.00000000E+00  0.00000000E+00
  0.00000000E+00  0.00000000E+00  0.00000000E+00  0.00000000E+00  0.00000000E+00
  0.00000000E+00  0.00000000E+00  0.00000000E+00  0.00000000E+00  0.00000000E+00
  0.00000000E+00  0.00000000E+00  0.00000000E+00
MO    7                     OCC NO =   1.00000000 ORB. ENERGY = -14.64918148
  0.00000000E+00  0.00000000E+00  0.00000000E+00  0.00000000E+00  0.00000000E+00
  0.00000000E+00  0.00000000E+00  0.00000000E+00  0.00000000E+00  0.00000000E+00
  0.00000000E+00  0.00000000E+00  0.00000000E+00  0.00000000E+00  0.00000000E+00
  0.00000000E+00  0.00000000E+00  0.00000000E+00  0.00000000E+00  0.00000000E+00
  0.00000000E+00  0.00000000E+00  0.00000000E+00  0.00000000E+00  0.00000000E+00
  0.00000000E+00  1.33236549E+01  0.00000000E+00  0.00000000E+00  1.23754236E+01
  0.00000000E+00  0.00000000E+00  1.65667384E+01  0.00000000E+00  0.00000000E+00
  2.20626918E+01  0.00000000E+00  0.00000000E+00  2.56114729E+01  0.00000000E+00
  0.00000000E+00  2.57055629E+01  0.00000000E+00  0.00000000E+00  2.07781465E+01
  0.00000000E+00  0.00000000E+00  1.17237213E+01  0.00000000E+00  0.00000000E+00
  3.75755333E+00  0.00000000E+00  0.00000000E+00  4.03404242E-01  0.00000000E+00
  0.00000000E+00 -4.98188699E-02  0.00000000E+00  0.00000000E+00 -6.33599093E-03
  0.00000000E+00  0.00000000E+00 -7.30522977E-03  0.00000000E+00  0.00000000E+00
  1.03099193E-02  0.00000000E+00  0.00000000E+00  8.36032455E-03  0.00000000E+00
  0.00000000E+00  2.57631509E-03  0.00000000E+00  0.00000000E+00 -1.62512986E-03
  0.00000000E+00  0.00000000E+00  6.38763296E-04  0.00000000E+00  0.00000000E+00
 -1.47669718E-04  0.00000000E+00  0.00000000E+00  1.89202698E-05  0.00000000E+00
  0.00000000E+00  0.00000000E+00  0.00000000E+00  0.00000000E+00  0.00000000E+00
  0.00000000E+00  0.00000000E+00  0.00000000E+00  0.00000000E+00  0.00000000E+00
  0.00000000E+00  0.00000000E+00  0.00000000E+00  0.00000000E+00  0.00000000E+00
  0.00000000E+00  0.00000000E+00  0.00000000E+00  0.00000000E+00  0.00000000E+00
  0.00000000E+00  0.00000000E+00  0.00000000E+00  0.00000000E+00  0.00000000E+00
  0.00000000E+00  0.00000000E+00  0.00000000E+00  0.00000000E+00  0.00000000E+00
  0.00000000E+00  0.00000000E+00  0.00000000E+00  0.00000000E+00  0.00000000E+00
  0.00000000E+00  0.00000000E+00  0.00000000E+00  0.00000000E+00  0.00000000E+00
  0.00000000E+00  0.00000000E+00  0.00000000E+00  0.00000000E+00  0.00000000E+00
  0.00000000E+00  0.00000000E+00  0.00000000E+00  0.00000000E+00  0.00000000E+00
  0.00000000E+00  0.00000000E+00  0.00000000E+00  0.00000000E+00  0.00000000E+00
  0.00000000E+00  0.00000000E+00  0.00000000E+00  0.00000000E+00  0.00000000E+00
  0.00000000E+00  0.00000000E+00  0.00000000E+00  0.00000000E+00  0.00000000E+00
  0.00000000E+00  0.00000000E+00  0.00000000E+00  0.00000000E+00  0.00000000E+00
  0.00000000E+00  0.00000000E+00  0.00000000E+00  0.00000000E+00  0.00000000E+00
  0.00000000E+00  0.00000000E+00  0.00000000E+00  0.00000000E+00  0.00000000E+00
  0.00000000E+00  0.00000000E+00  0.00000000E+00  0.00000000E+00  0.00000000E+00
  0.00000000E+00  0.00000000E+00  0.00000000E+00  0.00000000E+00  0.00000000E+00
  0.00000000E+00  0.00000000E+00  0.00000000E+00  0.00000000E+00  0.00000000E+00
  0.00000000E+00  0.00000000E+00  0.00000000E+00
MO    8                     OCC NO =   1.00000000 ORB. ENERGY =  -1.36217401
  0.00000000E+00  0.00000000E+00  0.00000000E+00  0.00000000E+00  0.00000000E+00
  0.00000000E+00  0.00000000E+00  0.00000000E+00  0.00000000E+00  0.00000000E+00
  0.00000000E+00  0.00000000E+00  0.00000000E+00  0.00000000E+00  0.00000000E+00
  0.00000000E+00  0.00000000E+00  0.00000000E+00  0.00000000E+00  0.00000000E+00
  0.00000000E+00  0.00000000E+00  0.00000000E+00  0.00000000E+00 -4.71918226E+00
  0.00000000E+00  0.00000000E+00 -4.38332275E+00  0.00000000E+00  0.00000000E+00
 -5.86786874E+00  0.00000000E+00  0.00000000E+00 -7.81451221E+00  0.00000000E+00
  0.00000000E+00 -9.07147546E+00  0.00000000E+00  0.00000000E+00 -9.10480173E+00
  0.00000000E+00  0.00000000E+00 -7.35953167E+00  0.00000000E+00  0.00000000E+00
 -4.15249254E+00  0.00000000E+00  0.00000000E+00 -1.33090951E+00  0.00000000E+00
  0.00000000E+00 -1.42884078E-01  0.00000000E+00  0.00000000E+00  1.43584360E-01
  0.00000000E+00  0.00000000E+00 -5.87452071E-01  0.00000000E+00  0.00000000E+00
 -6.77316683E-01  0.00000000E+00  0.00000000E+00  9.55901533E-01  0.00000000E+00
  0.00000000E+00  7.75141573E-01  0.00000000E+00  0.00000000E+00  2.38867393E-01
  0.00000000E+00  0.00000000E+00  1.46280878E-02  0.00000000E+00  0.00000000E+00
  1.17941549E-03  0.00000000E+00  0.00000000E+00 -2.65000064E-04  0.00000000E+00
  0.00000000E+00  3.87846905E-05  0.00000000E+00  0.00000000E+00  0.00000000E+00
  0.00000000E+00  0.00000000E+00  0.00000000E+00  0.00000000E+00  0.00000000E+00
  0.00000000E+00  0.00000000E+00  0.00000000E+00  0.00000000E+00  0.00000000E+00
  0.00000000E+00  0.00000000E+00  0.00000000E+00  0.00000000E+00  0.00000000E+00
  0.00000000E+00  0.00000000E+00  0.00000000E+00  0.00000000E+00  0.00000000E+00
  0.00000000E+00  0.00000000E+00  0.00000000E+00  0.00000000E+00  0.00000000E+00
  0.00000000E+00  0.00000000E+00  0.00000000E+00  0.00000000E+00  0.00000000E+00
  0.00000000E+00  0.00000000E+00  0.00000000E+00  0.00000000E+00  0.00000000E+00
  0.00000000E+00  0.00000000E+00  0.00000000E+00  0.00000000E+00  0.00000000E+00
  0.00000000E+00  0.00000000E+00  0.00000000E+00  0.00000000E+00  0.00000000E+00
  0.00000000E+00  0.00000000E+00  0.00000000E+00  0.00000000E+00  0.00000000E+00
  0.00000000E+00  0.00000000E+00  0.00000000E+00  0.00000000E+00  0.00000000E+00
  0.00000000E+00  0.00000000E+00  0.00000000E+00  0.00000000E+00  0.00000000E+00
  0.00000000E+00  0.00000000E+00  0.00000000E+00  0.00000000E+00  0.00000000E+00
  0.00000000E+00  0.00000000E+00  0.00000000E+00  0.00000000E+00  0.00000000E+00
  0.00000000E+00  0.00000000E+00  0.00000000E+00  0.00000000E+00  0.00000000E+00
  0.00000000E+00  0.00000000E+00  0.00000000E+00  0.00000000E+00  0.00000000E+00
  0.00000000E+00  0.00000000E+00  0.00000000E+00  0.00000000E+00  0.00000000E+00
  0.00000000E+00  0.00000000E+00  0.00000000E+00  0.00000000E+00  0.00000000E+00
  0.00000000E+00  0.00000000E+00  0.00000000E+00  0.00000000E+00  0.00000000E+00
  0.00000000E+00  0.00000000E+00  0.00000000E+00
MO    9                     OCC NO =   1.00000000 ORB. ENERGY =  -1.36217401
  0.00000000E+00  0.00000000E+00  0.00000000E+00  0.00000000E+00  0.00000000E+00
  0.00000000E+00  0.00000000E+00  0.00000000E+00  0.00000000E+00  0.00000000E+00
  0.00000000E+00  0.00000000E+00  0.00000000E+00  0.00000000E+00  0.00000000E+00
  0.00000000E+00  0.00000000E+00  0.00000000E+00  0.00000000E+00  0.00000000E+00
  0.00000000E+00  0.00000000E+00  0.00000000E+00  0.00000000E+00  0.00000000E+00
 -4.71918226E+00  0.00000000E+00  0.00000000E+00 -4.38332275E+00  0.00000000E+00
  0.00000000E+00 -5.86786874E+00  0.00000000E+00  0.00000000E+00 -7.81451221E+00
  0.00000000E+00  0.00000000E+00 -9.07147546E+00  0.00000000E+00  0.00000000E+00
 -9.10480173E+00  0.00000000E+00  0.00000000E+00 -7.35953167E+00  0.00000000E+00
  0.00000000E+00 -4.15249254E+00  0.00000000E+00  0.00000000E+00 -1.33090951E+00
  0.00000000E+00  0.00000000E+00 -1.42884078E-01  0.00000000E+00  0.00000000E+00