atomref-proatoms Se_q0_mult3_nist x2c-QZVPall
GAUSSIAN             36 MOL ORBITALS    185 PRIMITIVES        1 NUCLEI
  Se   1    (CENTRE  1)   0.00000000  0.00000000  0.00000000  CHARGE = 34.0
CENTRE ASSIGNMENTS    1  1  1  1  1  1  1  1  1  1  1  1  1  1  1  1  1  1  1  1
CENTRE ASSIGNMENTS    1  1  1  1  1  1  1  1  1  1  1  1  1  1  1  1  1  1  1  1
CENTRE ASSIGNMENTS    1  1  1  1  1  1  1  1  1  1  1  1  1  1  1  1  1  1  1  1
CENTRE ASSIGNMENTS    1  1  1  1  1  1  1  1  1  1  1  1  1  1  1  1  1  1  1  1
CENTRE ASSIGNMENTS    1  1  1  1  1  1  1  1  1  1  1  1  1  1  1  1  1  1  1  1
CENTRE ASSIGNMENTS    1  1  1  1  1  1  1  1  1  1  1  1  1  1  1  1  1  1  1  1
CENTRE ASSIGNMENTS    1  1  1  1  1  1  1  1  1  1  1  1  1  1  1  1  1  1  1  1
CENTRE ASSIGNMENTS    1  1  1  1  1  1  1  1  1  1  1  1  1  1  1  1  1  1  1  1
CENTRE ASSIGNMENTS    1  1  1  1  1  1  1  1  1  1  1  1  1  1  1  1  1  1  1  1
CENTRE ASSIGNMENTS    1  1  1  1  1
TYPE ASSIGNMENTS      1  1  1  1  1  1  1  1  1  1  1  1  1  1  1  1  1  1  1  1
TYPE ASSIGNMENTS      1  1  1  1  2  3  4  2  3  4  2  3  4  2  3  4  2  3  4  2
TYPE ASSIGNMENTS      3  4  2  3  4  2  3  4  2  3  4  2  3  4  2  3  4  2  3  4
TYPE ASSIGNMENTS      2  3  4  2  3  4  2  3  4  2  3  4  2  3  4  2  3  4  2  3
TYPE ASSIGNMENTS      4  2  3  4  2  3  4  2  3  4  5  8  9  6 10  7  5  8  9  6
TYPE ASSIGNMENTS     10  7  5  8  9  6 10  7  5  8  9  6 10  7  5  8  9  6 10  7
TYPE ASSIGNMENTS      5  8  9  6 10  7  5  8  9  6 10  7  5  8  9  6 10  7  5  8
TYPE ASSIGNMENTS      9  6 10  7  5  8  9  6 10  7 11 14 15 17 20 18 12 16 19 13
TYPE ASSIGNMENTS     11 14 15 17 20 18 12 16 19 13 21 24 25 30 33 31 26 34 35 28
TYPE ASSIGNMENTS     22 27 32 29 23
EXPONENTS  2.2714466E+07 3.2144078E+06 6.7529312E+05 1.7833000E+05 5.5020513E+04
EXPONENTS  1.9086029E+04 7.2299225E+03 2.9114422E+03 1.2812030E+03 5.8516939E+02
EXPONENTS  2.7162266E+02 3.1248501E+03 9.4777766E+02 3.7064585E+02 1.6298194E+02
EXPONENTS  8.4130938E+01 3.4146271E+01 1.6435738E+01 7.7898928E+00 3.6761448E+00
EXPONENTS  1.6870350E+00 5.1607525E-01 2.5069068E-01 1.0583637E-01 1.0309034E+05
EXPONENTS  1.0309034E+05 1.0309034E+05 2.5712103E+04 2.5712103E+04 2.5712103E+04
EXPONENTS  7.2786876E+03 7.2786876E+03 7.2786876E+03 2.3386457E+03 2.3386457E+03
EXPONENTS  2.3386457E+03 8.5284800E+02 8.5284800E+02 8.5284800E+02 3.5309693E+02
EXPONENTS  3.5309693E+02 3.5309693E+02 1.5743721E+02 1.5743721E+02 1.5743721E+02
EXPONENTS  7.4682223E+01 7.4682223E+01 7.4682223E+01 3.7004263E+01 3.7004263E+01
EXPONENTS  3.7004263E+01 1.9008721E+01 1.9008721E+01 1.9008721E+01 9.9428419E+00
EXPONENTS  9.9428419E+00 9.9428419E+00 3.1000000E+01 3.1000000E+01 3.1000000E+01
EXPONENTS  2.2989233E+02 2.2989233E+02 2.2989233E+02 8.5041252E+01 8.5041252E+01
EXPONENTS  8.5041252E+01 3.8726841E+01 3.8726841E+01 3.8726841E+01 9.6436341E+00
EXPONENTS  9.6436341E+00 9.6436341E+00 4.8290957E+00 4.8290957E+00 4.8290957E+00
EXPONENTS  2.4226030E+00 2.4226030E+00 2.4226030E+00 1.1799678E+00 1.1799678E+00
EXPONENTS  1.1799678E+00 4.9407613E-01 4.9407613E-01 4.9407613E-01 2.0126357E-01
EXPONENTS  2.0126357E-01 2.0126357E-01 7.7487603E-02 7.7487603E-02 7.7487603E-02
EXPONENTS  5.6160263E+02 5.6160263E+02 5.6160263E+02 5.6160263E+02 5.6160263E+02
EXPONENTS  5.6160263E+02 1.6642348E+02 1.6642348E+02 1.6642348E+02 1.6642348E+02
EXPONENTS  1.6642348E+02 1.6642348E+02 6.4318616E+01 6.4318616E+01 6.4318616E+01
EXPONENTS  6.4318616E+01 6.4318616E+01 6.4318616E+01 2.7896819E+01 2.7896819E+01
EXPONENTS  2.7896819E+01 2.7896819E+01 2.7896819E+01 2.7896819E+01 1.2915548E+01
EXPONENTS  1.2915548E+01 1.2915548E+01 1.2915548E+01 1.2915548E+01 1.2915548E+01
EXPONENTS  6.1602202E+00 6.1602202E+00 6.1602202E+00 6.1602202E+00 6.1602202E+00
EXPONENTS  6.1602202E+00 2.9400730E+00 2.9400730E+00 2.9400730E+00 2.9400730E+00
EXPONENTS  2.9400730E+00 2.9400730E+00 1.3572019E+00 1.3572019E+00 1.3572019E+00
EXPONENTS  1.3572019E+00 1.3572019E+00 1.3572019E+00 5.5681110E-01 5.5681110E-01
EXPONENTS  5.5681110E-01 5.5681110E-01 5.5681110E-01 5.5681110E-01 2.0000000E-01
EXPONENTS  2.0000000E-01 2.0000000E-01 2.0000000E-01 2.0000000E-01 2.0000000E-01
EXPONENTS  7.0970000E-01 7.0970000E-01 7.0970000E-01 7.0970000E-01 7.0970000E-01
EXPONENTS  7.0970000E-01 7.0970000E-01 7.0970000E-01 7.0970000E-01 7.0970000E-01
EXPONENTS  2.8400000E-01 2.8400000E-01 2.8400000E-01 2.8400000E-01 2.8400000E-01
EXPONENTS  2.8400000E-01 2.8400000E-01 2.8400000E-01 2.8400000E-01 2.8400000E-01
EXPONENTS  5.7300000E-01 5.7300000E-01 5.7300000E-01 5.7300000E-01 5.7300000E-01
EXPONENTS  5.7300000E-01 5.7300000E-01 5.7300000E-01 5.7300000E-01 5.7300000E-01
EXPONENTS  5.7300000E-01 5.7300000E-01 5.7300000E-01 5.7300000E-01 5.7300000E-01
MO    1                     OCC NO =   1.00000000 ORB. ENERGY = -461.30683105
  1.79714932E+01  1.34112791E+01  1.13339221E+01  1.07380764E+01  1.11490658E+01
  1.26050694E+01  1.49024020E+01  1.71308680E+01  1.82964826E+01  1.70869114E+01
  9.41234469E+00  9.58311490E-01  2.99766989E+00  6.42730372E+00  8.02062875E+00
  2.92024767E+00  1.13958784E-01 -1.34161162E-03 -1.69738198E-03  7.86072130E-04
 -2.24671317E-04  4.42268388E-05 -1.64633922E-05  2.29853734E-06  0.00000000E+00
  0.00000000E+00  0.00000000E+00  0.00000000E+00  0.00000000E+00  0.00000000E+00
  0.00000000E+00  0.00000000E+00  0.00000000E+00  0.00000000E+00  0.00000000E+00
  0.00000000E+00  0.00000000E+00  0.00000000E+00  0.00000000E+00  0.00000000E+00
  0.00000000E+00  0.00000000E+00  0.00000000E+00  0.00000000E+00  0.00000000E+00
  0.00000000E+00  0.00000000E+00  0.00000000E+00  0.00000000E+00  0.00000000E+00
  0.00000000E+00  0.00000000E+00  0.00000000E+00  0.00000000E+00  0.00000000E+00
  0.00000000E+00  0.00000000E+00  0.00000000E+00  0.00000000E+00  0.00000000E+00
  0.00000000E+00  0.00000000E+00  0.00000000E+00  0.00000000E+00  0.00000000E+00
  0.00000000E+00  0.00000000E+00  0.00000000E+00  0.00000000E+00  0.00000000E+00
  0.00000000E+00  0.00000000E+00  0.00000000E+00  0.00000000E+00  0.00000000E+00
  0.00000000E+00  0.00000000E+00  0.00000000E+00  0.00000000E+00  0.00000000E+00
  0.00000000E+00  0.00000000E+00  0.00000000E+00  0.00000000E+00  0.00000000E+00
  0.00000000E+00  0.00000000E+00  0.00000000E+00  0.00000000E+00  0.00000000E+00
  0.00000000E+00  0.00000000E+00  0.00000000E+00  0.00000000E+00  0.00000000E+00
  0.00000000E+00  0.00000000E+00  0.00000000E+00  0.00000000E+00  0.00000000E+00
  0.00000000E+00  0.00000000E+00  0.00000000E+00  0.00000000E+00  0.00000000E+00
  0.00000000E+00  0.00000000E+00  0.00000000E+00  0.00000000E+00  0.00000000E+00
  0.00000000E+00  0.00000000E+00  0.00000000E+00  0.00000000E+00  0.00000000E+00
  0.00000000E+00  0.00000000E+00  0.00000000E+00  0.00000000E+00  0.00000000E+00
  0.00000000E+00  0.00000000E+00  0.00000000E+00  0.00000000E+00  0.00000000E+00
  0.00000000E+00  0.00000000E+00  0.00000000E+00  0.00000000E+00  0.00000000E+00
  0.00000000E+00  0.00000000E+00  0.00000000E+00  0.00000000E+00  0.00000000E+00
  0.00000000E+00  0.00000000E+00  0.00000000E+00  0.00000000E+00  0.00000000E+00
  0.00000000E+00  0.00000000E+00  0.00000000E+00  0.00000000E+00  0.00000000E+00
  0.00000000E+00  0.00000000E+00  0.00000000E+00  0.00000000E+00  0.00000000E+00
  0.00000000E+00  0.00000000E+00  0.00000000E+00  0.00000000E+00  0.00000000E+00
  0.00000000E+00  0.00000000E+00  0.00000000E+00  0.00000000E+00  0.00000000E+00
  0.00000000E+00  0.00000000E+00  0.00000000E+00  0.00000000E+00  0.00000000E+00
  0.00000000E+00  0.00000000E+00  0.00000000E+00  0.00000000E+00  0.00000000E+00
  0.00000000E+00  0.00000000E+00  0.00000000E+00  0.00000000E+00  0.00000000E+00
  0.00000000E+00  0.00000000E+00  0.00000000E+00  0.00000000E+00  0.00000000E+00
  0.00000000E+00  0.00000000E+00  0.00000000E+00  0.00000000E+00  0.00000000E+00
MO    2                     OCC NO =   1.00000000 ORB. ENERGY = -59.85135153
 -5.86994548E+00 -4.38046389E+00 -3.70194642E+00 -3.50732811E+00 -3.64156767E+00
 -4.11713537E+00 -4.86750247E+00 -5.59537596E+00 -5.97609527E+00 -5.58101863E+00
 -3.07431050E+00 -7.03682703E-01 -2.20117203E+00 -4.71953274E+00 -5.88950229E+00
 -1.03450835E+00  4.36625134E+00  3.25874930E+00  5.46367056E-01 -3.28491496E-03
  2.90557154E-03 -4.71689564E-04  1.69763070E-04 -2.38884488E-05  0.00000000E+00
  0.00000000E+00  0.00000000E+00  0.00000000E+00  0.00000000E+00  0.00000000E+00
  0.00000000E+00  0.00000000E+00  0.00000000E+00  0.00000000E+00  0.00000000E+00
  0.00000000E+00  0.00000000E+00  0.00000000E+00  0.00000000E+00  0.00000000E+00
  0.00000000E+00  0.00000000E+00  0.00000000E+00  0.00000000E+00  0.00000000E+00
  0.00000000E+00  0.00000000E+00  0.00000000E+00  0.00000000E+00  0.00000000E+00
  0.00000000E+00  0.00000000E+00  0.00000000E+00  0.00000000E+00  0.00000000E+00
  0.00000000E+00  0.00000000E+00  0.00000000E+00  0.00000000E+00  0.00000000E+00
  0.00000000E+00  0.00000000E+00  0.00000000E+00  0.00000000E+00  0.00000000E+00
  0.00000000E+00  0.00000000E+00  0.00000000E+00  0.00000000E+00  0.00000000E+00
  0.00000000E+00  0.00000000E+00  0.00000000E+00  0.00000000E+00  0.00000000E+00
  0.00000000E+00  0.00000000E+00  0.00000000E+00  0.00000000E+00  0.00000000E+00
  0.00000000E+00  0.00000000E+00  0.00000000E+00  0.00000000E+00  0.00000000E+00
  0.00000000E+00  0.00000000E+00  0.00000000E+00  0.00000000E+00  0.00000000E+00
  0.00000000E+00  0.00000000E+00  0.00000000E+00  0.00000000E+00  0.00000000E+00
  0.00000000E+00  0.00000000E+00  0.00000000E+00  0.00000000E+00  0.00000000E+00
  0.00000000E+00  0.00000000E+00  0.00000000E+00  0.00000000E+00  0.00000000E+00
  0.00000000E+00  0.00000000E+00  0.00000000E+00  0.00000000E+00  0.00000000E+00
  0.00000000E+00  0.00000000E+00  0.00000000E+00  0.00000000E+00  0.00000000E+00
  0.00000000E+00  0.00000000E+00  0.00000000E+00  0.00000000E+00  0.00000000E+00
  0.00000000E+00  0.00000000E+00  0.00000000E+00  0.00000000E+00  0.00000000E+00
  0.00000000E+00  0.00000000E+00  0.00000000E+00  0.00000000E+00  0.00000000E+00
  0.00000000E+00  0.00000000E+00  0.00000000E+00  0.00000000E+00  0.00000000E+00
  0.00000000E+00  0.00000000E+00  0.00000000E+00  0.00000000E+00  0.00000000E+00
  0.00000000E+00  0.00000000E+00  0.00000000E+00  0.00000000E+00  0.00000000E+00
  0.00000000E+00  0.00000000E+00  0.00000000E+00  0.00000000E+00  0.00000000E+00
  0.00000000E+00  0.00000000E+00  0.00000000E+00  0.00000000E+00  0.00000000E+00
  0.00000000E+00  0.00000000E+00  0.00000000E+00  0.00000000E+00  0.00000000E+00
  0.00000000E+00  0.00000000E+00  0.00000000E+00  0.00000000E+00  0.00000000E+00
  0.00000000E+00  0.00000000E+00  0.00000000E+00  0.00000000E+00  0.00000000E+00
  0.00000000E+00  0.00000000E+00  0.00000000E+00  0.00000000E+00  0.00000000E+00
  0.00000000E+00  0.00000000E+00  0.00000000E+00  0.00000000E+00  0.00000000E+00
  0.00000000E+00  0.00000000E+00  0.00000000E+00  0.00000000E+00  0.00000000E+00
MO    3                     OCC NO =   1.00000000 ORB. ENERGY =  -8.19710179
  2.32604232E+00  1.73581585E+00  1.46694447E+00  1.38982443E+00  1.44301860E+00
  1.63146849E+00  1.92881123E+00  2.21724057E+00  2.36810556E+00  2.21155130E+00
  1.21823556E+00  3.08512463E-01  9.65050017E-01  2.06916365E+00  2.58210817E+00
  4.63429824E-01 -2.70682891E+00 -2.93111880E+00 -8.14044059E-02  1.31391217E+00
  5.45310131E-01  2.04092064E-02 -3.77713550E-03  4.39756116E-04  0.00000000E+00
  0.00000000E+00  0.00000000E+00  0.00000000E+00  0.00000000E+00  0.00000000E+00
  0.00000000E+00  0.00000000E+00  0.00000000E+00  0.00000000E+00  0.00000000E+00
  0.00000000E+00  0.00000000E+00  0.00000000E+00  0.00000000E+00  0.00000000E+00
  0.00000000E+00  0.00000000E+00  0.00000000E+00  0.00000000E+00  0.00000000E+00
  0.00000000E+00  0.00000000E+00  0.00000000E+00  0.00000000E+00  0.00000000E+00
  0.00000000E+00  0.00000000E+00  0.00000000E+00  0.00000000E+00  0.00000000E+00
  0.00000000E+00  0.00000000E+00  0.00000000E+00  0.00000000E+00  0.00000000E+00
  0.00000000E+00  0.00000000E+00  0.00000000E+00  0.00000000E+00  0.00000000E+00
  0.00000000E+00  0.00000000E+00  0.00000000E+00  0.00000000E+00  0.00000000E+00
  0.00000000E+00  0.00000000E+00  0.00000000E+00  0.00000000E+00  0.00000000E+00
  0.00000000E+00  0.00000000E+00  0.00000000E+00  0.00000000E+00  0.00000000E+00
  0.00000000E+00  0.00000000E+00  0.00000000E+00  0.00000000E+00  0.00000000E+00
  0.00000000E+00  0.00000000E+00  0.00000000E+00  0.00000000E+00  0.00000000E+00
  0.00000000E+00  0.00000000E+00  0.00000000E+00  0.00000000E+00  0.00000000E+00
  0.00000000E+00  0.00000000E+00  0.00000000E+00  0.00000000E+00  0.00000000E+00
  0.00000000E+00  0.00000000E+00  0.00000000E+00  0.00000000E+00  0.00000000E+00
  0.00000000E+00  0.00000000E+00  0.00000000E+00  0.00000000E+00  0.00000000E+00
  0.00000000E+00  0.00000000E+00  0.00000000E+00  0.00000000E+00  0.00000000E+00
  0.00000000E+00  0.00000000E+00  0.00000000E+00  0.00000000E+00  0.00000000E+00
  0.00000000E+00  0.00000000E+00  0.00000000E+00  0.00000000E+00  0.00000000E+00
  0.00000000E+00  0.00000000E+00  0.00000000E+00  0.00000000E+00  0.00000000E+00
  0.00000000E+00  0.00000000E+00  0.00000000E+00  0.00000000E+00  0.00000000E+00
  0.00000000E+00  0.00000000E+00  0.00000000E+00  0.00000000E+00  0.00000000E+00
  0.00000000E+00  0.00000000E+00  0.00000000E+00  0.00000000E+00  0.00000000E+00
  0.00000000E+00  0.00000000E+00  0.00000000E+00  0.00000000E+00  0.00000000E+00
  0.00000000E+00  0.00000000E+00  0.00000000E+00  0.00000000E+00  0.00000000E+00
  0.00000000E+00  0.00000000E+00  0.00000000E+00  0.00000000E+00  0.00000000E+00
  0.00000000E+00  0.00000000E+00  0.00000000E+00  0.00000000E+00  0.00000000E+00
  0.00000000E+00  0.00000000E+00  0.00000000E+00  0.00000000E+00  0.00000000E+00
  0.00000000E+00  0.00000000E+00  0.00000000E+00  0.00000000E+00  0.00000000E+00
  0.00000000E+00  0.00000000E+00  0.00000000E+00  0.00000000E+00  0.00000000E+00
  0.00000000E+00  0.00000000E+00  0.00000000E+00  0.00000000E+00  0.00000000E+00
MO    4                     OCC NO =   1.00000000 ORB. ENERGY =  -0.74376581
 -7.19116228E-01 -5.36642577E-01 -4.53518650E-01 -4.29676318E-01 -4.46121760E-01
 -5.04382684E-01 -5.96308778E-01 -6.85479221E-01 -7.32120444E-01 -6.83720331E-01
 -3.76628126E-01 -9.68020318E-02 -3.02803983E-01 -6.49241991E-01 -8.10188720E-01
 -1.45399729E-01  8.90961106E-01  1.03009067E+00  1.72150312E-02 -6.37458530E-01
 -4.27412115E-01  1.35690497E-01  1.77548201E-01  2.94018047E-02  0.00000000E+00
  0.00000000E+00  0.00000000E+00  0.00000000E+00  0.00000000E+00  0.00000000E+00
  0.00000000E+00  0.00000000E+00  0.00000000E+00  0.00000000E+00  0.00000000E+00
  0.00000000E+00  0.00000000E+00  0.00000000E+00  0.00000000E+00  0.00000000E+00
  0.00000000E+00  0.00000000E+00  0.00000000E+00  0.00000000E+00  0.00000000E+00
  0.00000000E+00  0.00000000E+00  0.00000000E+00  0.00000000E+00  0.00000000E+00
  0.00000000E+00  0.00000000E+00  0.00000000E+00  0.00000000E+00  0.00000000E+00
  0.00000000E+00  0.00000000E+00  0.00000000E+00  0.00000000E+00  0.00000000E+00
  0.00000000E+00  0.00000000E+00  0.00000000E+00  0.00000000E+00  0.00000000E+00
  0.00000000E+00  0.00000000E+00  0.00000000E+00  0.00000000E+00  0.00000000E+00
  0.00000000E+00  0.00000000E+00  0.00000000E+00  0.00000000E+00  0.00000000E+00
  0.00000000E+00  0.00000000E+00  0.00000000E+00  0.00000000E+00  0.00000000E+00
  0.00000000E+00  0.00000000E+00  0.00000000E+00  0.00000000E+00  0.00000000E+00
  0.00000000E+00  0.00000000E+00  0.00000000E+00  0.00000000E+00  0.00000000E+00
  0.00000000E+00  0.00000000E+00  0.00000000E+00  0.00000000E+00  0.00000000E+00
  0.00000000E+00  0.00000000E+00  0.00000000E+00  0.00000000E+00  0.00000000E+00
  0.00000000E+00  0.00000000E+00  0.00000000E+00  0.00000000E+00  0.00000000E+00
  0.00000000E+00  0.00000000E+00  0.00000000E+00  0.00000000E+00  0.00000000E+00
  0.00000000E+00  0.00000000E+00  0.00000000E+00  0.00000000E+00  0.00000000E+00
  0.00000000E+00  0.00000000E+00  0.00000000E+00  0.00000000E+00  0.00000000E+00
  0.00000000E+00  0.00000000E+00  0.00000000E+00  0.00000000E+00  0.00000000E+00
  0.00000000E+00  0.00000000E+00  0.00000000E+00  0.00000000E+00  0.00000000E+00
  0.00000000E+00  0.00000000E+00  0.00000000E+00  0.00000000E+00  0.00000000E+00
  0.00000000E+00  0.00000000E+00  0.00000000E+00  0.00000000E+00  0.00000000E+00
  0.00000000E+00  0.00000000E+00  0.00000000E+00  0.00000000E+00  0.00000000E+00
  0.00000000E+00  0.00000000E+00  0.00000000E+00  0.00000000E+00  0.00000000E+00
  0.00000000E+00  0.00000000E+00  0.00000000E+00  0.00000000E+00  0.00000000E+00
  0.00000000E+00  0.00000000E+00  0.00000000E+00  0.00000000E+00  0.00000000E+00
  0.00000000E+00  0.00000000E+00  0.00000000E+00  0.00000000E+00  0.00000000E+00
  0.00000000E+00  0.00000000E+00  0.00000000E+00  0.00000000E+00  0.00000000E+00
  0.00000000E+00  0.00000000E+00  0.00000000E+00  0.00000000E+00  0.00000000E+00
  0.00000000E+00  0.00000000E+00  0.00000000E+00  0.00000000E+00  0.00000000E+00
  0.00000000E+00  0.00000000E+00  0.00000000E+00  0.00000000E+00  0.00000000E+00
MO    5                     OCC NO =   1.00000000 ORB. ENERGY = -52.60337673
  0.00000000E+00  0.00000000E+00  0.00000000E+00  0.00000000E+00  0.00000000E+00
  0.00000000E+00  0.00000000E+00  0.00000000E+00  0.00000000E+00  0.00000000E+00
  0.00000000E+00  0.00000000E+00  0.00000000E+00  0.00000000E+00  0.00000000E+00
  0.00000000E+00  0.00000000E+00  0.00000000E+00  0.00000000E+00  0.00000000E+00
  0.00000000E+00  0.00000000E+00  0.00000000E+00  0.00000000E+00  1.14101235E+02
  0.00000000E+00  0.00000000E+00  6.69613310E+01  0.00000000E+00  0.00000000E+00
  6.76028064E+01  0.00000000E+00  0.00000000E+00  7.56188638E+01  0.00000000E+00
  0.00000000E+00  8.63715062E+01  0.00000000E+00  0.00000000E+00  9.65120435E+01
  0.00000000E+00  0.00000000E+00  9.75774721E+01  0.00000000E+00  0.00000000E+00
  7.90456378E+01  0.00000000E+00  0.00000000E+00  4.66309306E+01  0.00000000E+00
  0.00000000E+00  1.61090097E+01  0.00000000E+00  0.00000000E+00  2.44644903E+00
  0.00000000E+00  0.00000000E+00 -2.49753632E-01  0.00000000E+00  0.00000000E+00
 -6.00552018E-02  0.00000000E+00  0.00000000E+00 -1.17748547E-01  0.00000000E+00
  0.00000000E+00 -1.09418653E-01  0.00000000E+00  0.00000000E+00  1.55854500E-01
  0.00000000E+00  0.00000000E+00  1.45943738E-01  0.00000000E+00  0.00000000E+00
 -1.85074842E-02  0.00000000E+00  0.00000000E+00  4.95248533E-03  0.00000000E+00
  0.00000000E+00 -7.69447483E-04  0.00000000E+00  0.00000000E+00  1.09124220E-04
  0.00000000E+00  0.00000000E+00 -9.74369555E-06  0.00000000E+00  0.00000000E+00
  0.00000000E+00  0.00000000E+00  0.00000000E+00  0.00000000E+00  0.00000000E+00
  0.00000000E+00  0.00000000E+00  0.00000000E+00  0.00000000E+00  0.00000000E+00
  0.00000000E+00  0.00000000E+00  0.00000000E+00  0.00000000E+00  0.00000000E+00
  0.00000000E+00  0.00000000E+00  0.00000000E+00  0.00000000E+00  0.00000000E+00
  0.00000000E+00  0.00000000E+00  0.00000000E+00  0.00000000E+00  0.00000000E+00
  0.00000000E+00  0.00000000E+00  0.00000000E+00  0.00000000E+00  0.00000000E+00
  0.00000000E+00  0.00000000E+00  0.00000000E+00  0.00000000E+00  0.00000000E+00
  0.00000000E+00  0.00000000E+00  0.00000000E+00  0.00000000E+00  0.00000000E+00
  0.00000000E+00  0.00000000E+00  0.00000000E+00  0.00000000E+00  0.00000000E+00
  0.00000000E+00  0.00000000E+00  0.00000000E+00  0.00000000E+00  0.00000000E+00
  0.00000000E+00  0.00000000E+00  0.00000000E+00  0.00000000E+00  0.00000000E+00
  0.00000000E+00  0.00000000E+00  0.00000000E+00  0.00000000E+00  0.00000000E+00
  0.00000000E+00  0.00000000E+00  0.00000000E+00  0.00000000E+00  0.00000000E+00
  0.00000000E+00  0.00000000E+00  0.00000000E+00  0.00000000E+00  0.00000000E+00
  0.00000000E+00  0.00000000E+00  0.00000000E+00  0.00000000E+00  0.00000000E+00
  0.00000000E+00  0.00000000E+00  0.00000000E+00  0.00000000E+00  0.00000000E+00
  0.00000000E+00  0.00000000E+00  0.00000000E+00  0.00000000E+00  0.00000000E+00
  0.00000000E+00  0.00000000E+00  0.00000000E+00  0.00000000E+00  0.00000000E+00
  0.00000000E+00  0.00000000E+00  0.00000000E+00  0.00000000E+00  0.00000000E+00
MO    6                     OCC NO =   1.00000000 ORB. ENERGY = -52.60337673
  0.00000000E+00  0.00000000E+00  0.00000000E+00  0.00000000E+00  0.00000000E+00
  0.00000000E+00  0.00000000E+00  0.00000000E+00  0.00000000E+00  0.00000000E+00
  0.00000000E+00  0.00000000E+00  0.00000000E+00  0.00000000E+00  0.00000000E+00
  0.00000000E+00  0.00000000E+00  0.00000000E+00  0.00000000E+00  0.00000000E+00
  0.00000000E+00  0.00000000E+00  0.00000000E+00  0.00000000E+00  0.00000000E+00
  1.14101235E+02  0.00000000E+00  0.00000000E+00  6.69613310E+01  0.00000000E+00
  0.00000000E+00  6.76028064E+01  0.00000000E+00  0.00000000E+00  7.56188638E+01
  0.00000000E+00  0.00000000E+00  8.63715062E+01  0.00000000E+00  0.00000000E+00
  9.65120435E+01  0.00000000E+00  0.00000000E+00  9.75774721E+01  0.00000000E+00
  0.00000000E+00  7.90456378E+01  0.00000000E+00  0.00000000E+00  4.66309306E+01
  0.00000000E+00  0.00000000E+00  1.61090097E+01  0.00000000E+00  0.00000000E+00
  2.44644903E+00  0.00000000E+00  0.00000000E+00 -2.49753632E-01  0.00000000E+00
  0.00000000E+00 -6.00552018E-02  0.00000000E+00  0.00000000E+00 -1.17748547E-01
  0.00000000E+00  0.00000000E+00 -1.09418653E-01  0.00000000E+00  0.00000000E+00
  1.55854500E-01  0.00000000E+00  0.00000000E+00  1.45943738E-01  0.00000000E+00
  0.00000000E+00 -1.85074842E-02  0.00000000E+00  0.00000000E+00  4.95248533E-03
  0.00000000E+00  0.00000000E+00 -7.69447483E-04  0.00000000E+00  0.00000000E+00
  1.09124220E-04  0.00000000E+00  0.00000000E+00 -9.74369555E-06  0.00000000E+00
  0.00000000E+00  0.00000000E+00  0.00000000E+00  0.00000000E+00  0.00000000E+00
  0.00000000E+00  0.00000000E+00  0.00000000E+00  0.00000000E+00  0.00000000E+00
  0.00000000E+00  0.00000000E+00  0.00000000E+00  0.00000000E+00  0.00000000E+00
  0.00000000E+00  0.00000000E+00  0.00000000E+00  0.00000000E+00  0.00000000E+00
  0.00000000E+00  0.00000000E+00  0.00000000E+00  0.00000000E+00  0.00000000E+00
  0.00000000E+00  0.00000000E+00  0.00000000E+00  0.00000000E+00  0.00000000E+00
  0.00000000E+00  0.00000000E+00  0.00000000E+00  0.00000000E+00  0.00000000E+00
  0.00000000E+00  0.00000000E+00  0.00000000E+00  0.00000000E+00  0.00000000E+00
  0.00000000E+00  0.00000000E+00  0.00000000E+00  0.00000000E+00  0.00000000E+00
  0.00000000E+00  0.00000000E+00  0.00000000E+00  0.00000000E+00  0.00000000E+00
  0.00000000E+00  0.00000000E+00  0.00000000E+00  0.00000000E+00  0.00000000E+00
  0.00000000E+00  0.00000000E+00  0.00000000E+00  0.00000000E+00  0.00000000E+00
  0.00000000E+00  0.00000000E+00  0.00000000E+00  0.00000000E+00  0.00000000E+00
  0.00000000E+00  0.00000000E+00  0.00000000E+00  0.00000000E+00  0.00000000E+00
  0.00000000E+00  0.00000000E+00  0.00000000E+00  0.00000000E+00  0.00000000E+00
  0.00000000E+00  0.00000000E+00  0.00000000E+00  0.00000000E+00  0.00000000E+00
  0.00000000E+00  0.00000000E+00  0.00000000E+00  0.00000000E+00  0.00000000E+00
  0.00000000E+00  0.00000000E+00  0.00000000E+00  0.00000000E+00  0.00000000E+00
  0.00000000E+00  0.00000000E+00  0.00000000E+00  0.00000000E+00  0.00000000E+00
MO    7                     OCC NO =   1.00000000 ORB. ENERGY = -52.60337673
  0.00000000E+00  0.00000000E+00  0.00000000E+00  0.00000000E+00  0.00000000E+00
  0.00000000E+00  0.00000000E+00  0.00000000E+00  0.00000000E+00  0.00000000E+00
  0.00000000E+00  0.00000000E+00  0.00000000E+00  0.00000000E+00  0.00000000E+00
  0.00000000E+00  0.00000000E+00  0.00000000E+00  0.00000000E+00  0.00000000E+00
  0.00000000E+00  0.00000000E+00  0.00000000E+00  0.00000000E+00  0.00000000E+00
  0.00000000E+00  1.14101235E+02  0.00000000E+00  0.00000000E+00  6.69613310E+01
  0.00000000E+00  0.00000000E+00  6.76028064E+01  0.00000000E+00  0.00000000E+00
  7.56188638E+01  0.00000000E+00  0.00000000E+00  8.63715062E+01  0.00000000E+00
  0.00000000E+00  9.65120435E+01  0.00000000E+00  0.00000000E+00  9.75774721E+01
  0.00000000E+00  0.00000000E+00  7.90456378E+01  0.00000000E+00  0.00000000E+00
  4.66309306E+01  0.00000000E+00  0.00000000E+00  1.61090097E+01  0.00000000E+00
  0.00000000E+00  2.44644903E+00  0.00000000E+00  0.00000000E+00 -2.49753632E-01
  0.00000000E+00  0.00000000E+00 -6.00552018E-02  0.00000000E+00  0.00000000E+00
 -1.17748547E-01  0.00000000E+00  0.00000000E+00 -1.09418653E-01  0.00000000E+00
  0.00000000E+00  1.55854500E-01  0.00000000E+00  0.00000000E+00  1.45943738E-01
  0.00000000E+00  0.00000000E+00 -1.85074842E-02  0.00000000E+00  0.00000000E+00
  4.95248533E-03  0.00000000E+00  0.00000000E+00 -7.69447483E-04  0.00000000E+00
  0.00000000E+00  1.09124220E-04  0.00000000E+00  0.00000000E+00 -9.74369555E-06
  0.00000000E+00  0.00000000E+00  0.00000000E+00  0.00000000E+00  0.00000000E+00
  0.00000000E+00  0.00000000E+00  0.00000000E+00  0.00000000E+00  0.00000000E+00
  0.00000000E+00  0.00000000E+00  0.00000000E+00  0.00000000E+00  0.00000000E+00
  0.00000000E+00  0.00000000E+00  0.00000000E+00  0.00000000E+00  0.00000000E+00
  0.00000000E+00  0.00000000E+00  0.00000000E+00  0.00000000E+00  0.00000000E+00
  0.00000000E+00  0.00000000E+00  0.00000000E+00  0.00000000E+00  0.00000000E+00
  0.00000000E+00  0.00000000E+00  0.00000000E+00  0.00000000E+00  0.00000000E+00
  0.00000000E+00  0.00000000E+00  0.00000000E+00  0.00000000E+00  0.00000000E+00
  0.00000000E+00  0.00000000E+00  0.00000000E+00  0.00000000E+00  0.00000000E+00
  0.00000000E+00  0.00000000E+00  0.00000000E+00  0.00000000E+00  0.00000000E+00
  0.00000000E+00  0.00000000E+00  0.00000000E+00  0.00000000E+00  0.00000000E+00
  0.00000000E+00  0.00000000E+00  0.00000000E+00  0.00000000E+00  0.00000000E+00
  0.00000000E+00  0.00000000E+00  0.00000000E+00  0.00000000E+00  0.00000000E+00
  0.00000000E+00  0.00000000E+00  0.00000000E+00  0.00000000E+00  0.00000000E+00
  0.00000000E+00  0.00000000E+00  0.00000000E+00  0.00000000E+00  0.00000000E+00
  0.00000000E+00  0.00000000E+00  0.00000000E+00  0.00000000E+00  0.00000000E+00
  0.00000000E+00  0.00000000E+00  0.00000000E+00  0.00000000E+00  0.00000000E+00
  0.00000000E+00  0.00000000E+00  0.00000000E+00  0.00000000E+00  0.00000000E+00
  0.00000000E+00  0.00000000E+00  0.00000000E+00  0.00000000E+00  0.00000000E+00
MO    8                     OCC NO =   1.00000000 ORB. ENERGY =  -5.90821393
  0.00000000E+00  0.00000000E+00  0.00000000E+00  0.00000000E+00  0.00000000E+00
  0.00000000E+00  0.00000000E+00  0.00000000E+00  0.00000000E+00  0.00000000E+00
  0.00000000E+00  0.00000000E+00  0.00000000E+00  0.00000000E+00  0.00000000E+00
  0.00000000E+00  0.00000000E+00  0.00000000E+00  0.00000000E+00  0.00000000E+00
  0.00000000E+00  0.00000000E+00  0.00000000E+00  0.00000000E+00 -4.62557342E+01
  0.00000000E+00  0.00000000E+00 -2.71455917E+01  0.00000000E+00  0.00000000E+00
 -2.74056407E+01  0.00000000E+00  0.00000000E+00 -3.06552867E+01  0.00000000E+00
  0.00000000E+00 -3.50143225E+01  0.00000000E+00  0.00000000E+00 -3.91252158E+01
  0.00000000E+00  0.00000000E+00 -3.95571320E+01  0.00000000E+00  0.00000000E+00
 -3.20444736E+01  0.00000000E+00  0.00000000E+00 -1.89038088E+01  0.00000000E+00
  0.00000000E+00 -6.53046455E+00  0.00000000E+00  0.00000000E+00 -9.91771004E-01
  0.00000000E+00  0.00000000E+00  3.68407747E-01  0.00000000E+00  0.00000000E+00
 -1.81204337E+00  0.00000000E+00  0.00000000E+00 -3.55282255E+00  0.00000000E+00
  0.00000000E+00 -3.30148497E+00  0.00000000E+00  0.00000000E+00  4.70259205E+00
  0.00000000E+00  0.00000000E+00  4.40355498E+00  0.00000000E+00  0.00000000E+00
  1.74623838E+00  0.00000000E+00  0.00000000E+00  2.78632590E-01  0.00000000E+00
  0.00000000E+00  5.30085983E-03  0.00000000E+00  0.00000000E+00  6.81239036E-05
  0.00000000E+00  0.00000000E+00 -7.94958296E-06  0.00000000E+00  0.00000000E+00
  0.00000000E+00  0.00000000E+00  0.00000000E+00  0.00000000E+00  0.00000000E+00
  0.00000000E+00  0.00000000E+00  0.00000000E+00  0.00000000E+00  0.00000000E+00
  0.00000000E+00  0.00000000E+00  0.00000000E+00  0.00000000E+00  0.00000000E+00
  0.00000000E+00  0.00000000E+00  0.00000000E+00  0.00000000E+00  0.00000000E+00
  0.00000000E+00  0.00000000E+00  0.00000000E+00  0.00000000E+00  0.00000000E+00
  0.00000000E+00  0.00000000E+00  0.00000000E+00  0.00000000E+00  0.00000000E+00
  0.00000000E+00  0.00000000E+00  0.00000000E+00  0.00000000E+00  0.00000000E+00
  0.00000000E+00  0.00000000E+00  0.00000000E+00  0.00000000E+00  0.00000000E+00
  0.00000000E+00  0.00000000E+00  0.00000000E+00  0.00000000E+00  0.00000000E+00
  0.00000000E+00  0.00000000E+00  0.00000000E+00  0.00000000E+00  0.00000000E+00
  0.00000000E+00  0.00000000E+00  0.00000000E+00  0.00000000E+00  0.00000000E+00
  0.00000000E+00  0.00000000E+00  0.00000000E+00  0.00000000E+00  0.00000000E+00
  0.00000000E+00  0.00000000E+00  0.00000000E+00  0.00000000E+00  0.00000000E+00
  0.00000000E+00  0.00000000E+00  0.00000000E+00  0.00000000E+00  0.00000000E+00
  0.00000000E+00  0.00000000E+00  0.00000000E+00  0.00000000E+00  0.00000000E+00
  0.00000000E+00  0.00000000E+00  0.00000000E+00  0.00000000E+00  0.00000000E+00
  0.00000000E+00  0.00000000E+00  0.00000000E+00  0.00000000E+00  0.00000000E+00
  0.00000000E+00  0.00000000E+00  0.00000000E+00  0.00000000E+00  0.00000000E+00
  0.00000000E+00  0.00000000E+00  0.00000000E+00  0.00000000E+00  0.00000000E+00
MO    9                     OCC NO =   1.00000000 ORB. ENERGY =  -5.90821393
  0.00000000E+00  0.00000000E+00  0.00000000E+00  0.00000000E+00  0.00000000E+00
  0.00000000E+00  0.00000000E+00  0.00000000E+00  0.00000000E+00  0.00000000E+00
  0.00000000E+00  0.00000000E+00  0.00000000E+00  0.00000000E+00  0.00000000E+00
  0.00000000E+00  0.00000000E+00  0.00000000E+00  0.00000000E+00  0.00000000E+00
  0.00000000E+00  0.00000000E+00  0.00000000E+00  0.00000000E+00  0.00000000E+00
 -4.62557342E+01  0.00000000E+00  0.00000000E+00 -2.71455917E+01  0.00000000E+00
  0.00000000E+00 -2.74056407E+01  0.00000000E+00  0.00000000E+00 -3.06552867E+01