atomref-proatoms Si_q0_mult3_nist x2c-QZVPall
GAUSSIAN             15 MOL ORBITALS    124 PRIMITIVES        1 NUCLEI
  Si   1    (CENTRE  1)   0.00000000  0.00000000  0.00000000  CHARGE = 14.0
CENTRE ASSIGNMENTS    1  1  1  1  1  1  1  1  1  1  1  1  1  1  1  1  1  1  1  1
CENTRE ASSIGNMENTS    1  1  1  1  1  1  1  1  1  1  1  1  1  1  1  1  1  1  1  1
CENTRE ASSIGNMENTS    1  1  1  1  1  1  1  1  1  1  1  1  1  1  1  1  1  1  1  1
CENTRE ASSIGNMENTS    1  1  1  1  1  1  1  1  1  1  1  1  1  1  1  1  1  1  1  1
CENTRE ASSIGNMENTS    1  1  1  1  1  1  1  1  1  1  1  1  1  1  1  1  1  1  1  1
CENTRE ASSIGNMENTS    1  1  1  1  1  1  1  1  1  1  1  1  1  1  1  1  1  1  1  1
CENTRE ASSIGNMENTS    1  1  1  1
TYPE ASSIGNMENTS      1  1  1  1  1  1  1  1  1  1  1  1  1  1  1  1  1  1  1  1
TYPE ASSIGNMENTS      2  3  4  2  3  4  2  3  4  2  3  4  2  3  4  2  3  4  2  3
TYPE ASSIGNMENTS      4  2  3  4  2  3  4  2  3  4  2  3  4  2  3  4  2  3  4  2
TYPE ASSIGNMENTS      3  4  2  3  4  5  8  9  6 10  7  5  8  9  6 10  7  5  8  9
TYPE ASSIGNMENTS      6 10  7  5  8  9  6 10  7 11 14 15 17 20 18 12 16 19 13 11
TYPE ASSIGNMENTS     14 15 17 20 18 12 16 19 13 21 24 25 30 33 31 26 34 35 28 22
TYPE ASSIGNMENTS     27 32 29 23
EXPONENTS  9.2279436E+05 1.3741595E+05 3.1293818E+04 8.8598041E+03 2.8905293E+03
EXPONENTS  1.0439033E+03 4.0700921E+02 1.6856235E+02 7.3211469E+01 3.3029102E+01
EXPONENTS  2.7892334E+02 8.5860267E+01 3.2975762E+01 1.5042312E+01 5.7285411E+00
EXPONENTS  2.6134479E+00 1.1764166E+00 3.5448653E-01 1.6238739E-01 6.8356689E-02
EXPONENTS  2.6124959E+03 2.6124959E+03 2.6124959E+03 8.9282859E+02 8.9282859E+02
EXPONENTS  8.9282859E+02 3.2099354E+02 3.2099354E+02 3.2099354E+02 1.2140602E+02
EXPONENTS  1.2140602E+02 1.2140602E+02 4.8305872E+01 4.8305872E+01 4.8305872E+01
EXPONENTS  2.0219730E+01 2.0219730E+01 2.0219730E+01 8.9036178E+00 8.9036178E+00
EXPONENTS  8.9036178E+00 4.1245200E+00 4.1245200E+00 4.1245200E+00 2.0096805E+00
EXPONENTS  2.0096805E+00 2.0096805E+00 4.6414282E+01 4.6414282E+01 4.6414282E+01
EXPONENTS  1.9077615E+00 1.9077615E+00 1.9077615E+00 9.2403668E-01 9.2403668E-01
EXPONENTS  9.2403668E-01 3.4522110E-01 3.4522110E-01 3.4522110E-01 1.3655303E-01
EXPONENTS  1.3655303E-01 1.3655303E-01 5.2970232E-02 5.2970232E-02 5.2970232E-02
EXPONENTS  2.6450000E+00 2.6450000E+00 2.6450000E+00 2.6450000E+00 2.6450000E+00
EXPONENTS  2.6450000E+00 6.0800000E-01 6.0800000E-01 6.0800000E-01 6.0800000E-01
EXPONENTS  6.0800000E-01 6.0800000E-01 2.7200000E-01 2.7200000E-01 2.7200000E-01
EXPONENTS  2.7200000E-01 2.7200000E-01 2.7200000E-01 1.1300000E-01 1.1300000E-01
EXPONENTS  1.1300000E-01 1.1300000E-01 1.1300000E-01 1.1300000E-01 5.4100000E-01
EXPONENTS  5.4100000E-01 5.4100000E-01 5.4100000E-01 5.4100000E-01 5.4100000E-01
EXPONENTS  5.4100000E-01 5.4100000E-01 5.4100000E-01 5.4100000E-01 2.1200000E-01
EXPONENTS  2.1200000E-01 2.1200000E-01 2.1200000E-01 2.1200000E-01 2.1200000E-01
EXPONENTS  2.1200000E-01 2.1200000E-01 2.1200000E-01 2.1200000E-01 4.6100000E-01
EXPONENTS  4.6100000E-01 4.6100000E-01 4.6100000E-01 4.6100000E-01 4.6100000E-01
EXPONENTS  4.6100000E-01 4.6100000E-01 4.6100000E-01 4.6100000E-01 4.6100000E-01
EXPONENTS  4.6100000E-01 4.6100000E-01 4.6100000E-01 4.6100000E-01
MO    1                     OCC NO =   1.00000000 ORB. ENERGY = -66.45413382
  1.44443635E+00  1.22497947E+00  1.40280593E+00  1.79718945E+00  2.46354670E+00
  3.43366408E+00  4.59899488E+00  5.54447265E+00  5.41656637E+00  3.55709475E+00
 -1.18727114E-02 -4.20686267E-02 -7.29331287E-02  1.10641537E+00  5.81266950E-02
 -4.17882718E-03  8.04330178E-04 -1.10422346E-04  3.55705838E-05 -5.27186926E-06
  0.00000000E+00  0.00000000E+00  0.00000000E+00  0.00000000E+00  0.00000000E+00
  0.00000000E+00  0.00000000E+00  0.00000000E+00  0.00000000E+00  0.00000000E+00
  0.00000000E+00  0.00000000E+00  0.00000000E+00  0.00000000E+00  0.00000000E+00
  0.00000000E+00  0.00000000E+00  0.00000000E+00  0.00000000E+00  0.00000000E+00
  0.00000000E+00  0.00000000E+00  0.00000000E+00  0.00000000E+00  0.00000000E+00
  0.00000000E+00  0.00000000E+00  0.00000000E+00  0.00000000E+00  0.00000000E+00
  0.00000000E+00  0.00000000E+00  0.00000000E+00  0.00000000E+00  0.00000000E+00
  0.00000000E+00  0.00000000E+00  0.00000000E+00  0.00000000E+00  0.00000000E+00
  0.00000000E+00  0.00000000E+00  0.00000000E+00  0.00000000E+00  0.00000000E+00
  0.00000000E+00  0.00000000E+00  0.00000000E+00  0.00000000E+00  0.00000000E+00
  0.00000000E+00  0.00000000E+00  0.00000000E+00  0.00000000E+00  0.00000000E+00
  0.00000000E+00  0.00000000E+00  0.00000000E+00  0.00000000E+00  0.00000000E+00
  0.00000000E+00  0.00000000E+00  0.00000000E+00  0.00000000E+00  0.00000000E+00
  0.00000000E+00  0.00000000E+00  0.00000000E+00  0.00000000E+00  0.00000000E+00
  0.00000000E+00  0.00000000E+00  0.00000000E+00  0.00000000E+00  0.00000000E+00
  0.00000000E+00  0.00000000E+00  0.00000000E+00  0.00000000E+00  0.00000000E+00
  0.00000000E+00  0.00000000E+00  0.00000000E+00  0.00000000E+00  0.00000000E+00
  0.00000000E+00  0.00000000E+00  0.00000000E+00  0.00000000E+00  0.00000000E+00
  0.00000000E+00  0.00000000E+00  0.00000000E+00  0.00000000E+00  0.00000000E+00
  0.00000000E+00  0.00000000E+00  0.00000000E+00  0.00000000E+00  0.00000000E+00
  0.00000000E+00  0.00000000E+00  0.00000000E+00  0.00000000E+00
MO    2                     OCC NO =   1.00000000 ORB. ENERGY =  -5.40075911
 -3.92385333E-01 -3.32769234E-01 -3.81076309E-01 -4.88211738E-01 -6.69229622E-01
 -9.32764829E-01 -1.24933033E+00 -1.50617211E+00 -1.47142600E+00 -9.66295127E-01
 -1.15716677E-01 -4.10019373E-01 -7.10838410E-01 -6.26448710E-01  6.11680805E-01
  8.04367547E-01  2.83377546E-01  1.17550246E-02 -2.11814967E-03  2.77399514E-04
  0.00000000E+00  0.00000000E+00  0.00000000E+00  0.00000000E+00  0.00000000E+00
  0.00000000E+00  0.00000000E+00  0.00000000E+00  0.00000000E+00  0.00000000E+00
  0.00000000E+00  0.00000000E+00  0.00000000E+00  0.00000000E+00  0.00000000E+00
  0.00000000E+00  0.00000000E+00  0.00000000E+00  0.00000000E+00  0.00000000E+00
  0.00000000E+00  0.00000000E+00  0.00000000E+00  0.00000000E+00  0.00000000E+00
  0.00000000E+00  0.00000000E+00  0.00000000E+00  0.00000000E+00  0.00000000E+00
  0.00000000E+00  0.00000000E+00  0.00000000E+00  0.00000000E+00  0.00000000E+00
  0.00000000E+00  0.00000000E+00  0.00000000E+00  0.00000000E+00  0.00000000E+00
  0.00000000E+00  0.00000000E+00  0.00000000E+00  0.00000000E+00  0.00000000E+00
  0.00000000E+00  0.00000000E+00  0.00000000E+00  0.00000000E+00  0.00000000E+00
  0.00000000E+00  0.00000000E+00  0.00000000E+00  0.00000000E+00  0.00000000E+00
  0.00000000E+00  0.00000000E+00  0.00000000E+00  0.00000000E+00  0.00000000E+00
  0.00000000E+00  0.00000000E+00  0.00000000E+00  0.00000000E+00  0.00000000E+00
  0.00000000E+00  0.00000000E+00  0.00000000E+00  0.00000000E+00  0.00000000E+00
  0.00000000E+00  0.00000000E+00  0.00000000E+00  0.00000000E+00  0.00000000E+00
  0.00000000E+00  0.00000000E+00  0.00000000E+00  0.00000000E+00  0.00000000E+00
  0.00000000E+00  0.00000000E+00  0.00000000E+00  0.00000000E+00  0.00000000E+00
  0.00000000E+00  0.00000000E+00  0.00000000E+00  0.00000000E+00  0.00000000E+00
  0.00000000E+00  0.00000000E+00  0.00000000E+00  0.00000000E+00  0.00000000E+00
  0.00000000E+00  0.00000000E+00  0.00000000E+00  0.00000000E+00  0.00000000E+00
  0.00000000E+00  0.00000000E+00  0.00000000E+00  0.00000000E+00
MO    3                     OCC NO =   1.00000000 ORB. ENERGY =  -0.47771190
  1.07069314E-01  9.08020011E-02  1.03983445E-01  1.33217252E-01  1.82611199E-01
  2.54521466E-01  3.40901989E-01  4.10985836E-01  4.01504742E-01  2.63670804E-01
  3.43121978E-02  1.21578550E-01  2.10777121E-01  1.96742800E-01 -2.24455329E-01
 -3.23760729E-01 -2.17916823E-01  9.50053659E-02  1.25261092E-01  2.03898529E-02
  0.00000000E+00  0.00000000E+00  0.00000000E+00  0.00000000E+00  0.00000000E+00
  0.00000000E+00  0.00000000E+00  0.00000000E+00  0.00000000E+00  0.00000000E+00
  0.00000000E+00  0.00000000E+00  0.00000000E+00  0.00000000E+00  0.00000000E+00
  0.00000000E+00  0.00000000E+00  0.00000000E+00  0.00000000E+00  0.00000000E+00
  0.00000000E+00  0.00000000E+00  0.00000000E+00  0.00000000E+00  0.00000000E+00
  0.00000000E+00  0.00000000E+00  0.00000000E+00  0.00000000E+00  0.00000000E+00
  0.00000000E+00  0.00000000E+00  0.00000000E+00  0.00000000E+00  0.00000000E+00
  0.00000000E+00  0.00000000E+00  0.00000000E+00  0.00000000E+00  0.00000000E+00
  0.00000000E+00  0.00000000E+00  0.00000000E+00  0.00000000E+00  0.00000000E+00
  0.00000000E+00  0.00000000E+00  0.00000000E+00  0.00000000E+00  0.00000000E+00
  0.00000000E+00  0.00000000E+00  0.00000000E+00  0.00000000E+00  0.00000000E+00
  0.00000000E+00  0.00000000E+00  0.00000000E+00  0.00000000E+00  0.00000000E+00
  0.00000000E+00  0.00000000E+00  0.00000000E+00  0.00000000E+00  0.00000000E+00
  0.00000000E+00  0.00000000E+00  0.00000000E+00  0.00000000E+00  0.00000000E+00
  0.00000000E+00  0.00000000E+00  0.00000000E+00  0.00000000E+00  0.00000000E+00
  0.00000000E+00  0.00000000E+00  0.00000000E+00  0.00000000E+00  0.00000000E+00
  0.00000000E+00  0.00000000E+00  0.00000000E+00  0.00000000E+00  0.00000000E+00
  0.00000000E+00  0.00000000E+00  0.00000000E+00  0.00000000E+00  0.00000000E+00
  0.00000000E+00  0.00000000E+00  0.00000000E+00  0.00000000E+00  0.00000000E+00
  0.00000000E+00  0.00000000E+00  0.00000000E+00  0.00000000E+00  0.00000000E+00
  0.00000000E+00  0.00000000E+00  0.00000000E+00  0.00000000E+00
MO    4                     OCC NO =   1.00000000 ORB. ENERGY =  -3.70959010
  0.00000000E+00  0.00000000E+00  0.00000000E+00  0.00000000E+00  0.00000000E+00
  0.00000000E+00  0.00000000E+00  0.00000000E+00  0.00000000E+00  0.00000000E+00
  0.00000000E+00  0.00000000E+00  0.00000000E+00  0.00000000E+00  0.00000000E+00
  0.00000000E+00  0.00000000E+00  0.00000000E+00  0.00000000E+00  0.00000000E+00
  3.03850408E+00  0.00000000E+00  0.00000000E+00  2.97202771E+00  0.00000000E+00
  0.00000000E+00  4.64641263E+00  0.00000000E+00  0.00000000E+00  6.11218909E+00
  0.00000000E+00  0.00000000E+00  8.37387829E+00  0.00000000E+00  0.00000000E+00
  7.46707905E+00  0.00000000E+00  0.00000000E+00  5.49958341E+00  0.00000000E+00
  0.00000000E+00  2.89093239E+00  0.00000000E+00  0.00000000E+00  6.40519979E-01
  0.00000000E+00  0.00000000E+00 -8.34977670E-01  0.00000000E+00  0.00000000E+00
  3.55574353E-01  0.00000000E+00  0.00000000E+00  1.85554355E-01  0.00000000E+00
  0.00000000E+00  4.68418797E-03  0.00000000E+00  0.00000000E+00 -9.17527447E-05
  0.00000000E+00  0.00000000E+00  5.77948068E-06  0.00000000E+00  0.00000000E+00
  0.00000000E+00  0.00000000E+00  0.00000000E+00  0.00000000E+00  0.00000000E+00
  0.00000000E+00  0.00000000E+00  0.00000000E+00  0.00000000E+00  0.00000000E+00
  0.00000000E+00  0.00000000E+00  0.00000000E+00  0.00000000E+00  0.00000000E+00
  0.00000000E+00  0.00000000E+00  0.00000000E+00  0.00000000E+00  0.00000000E+00
  0.00000000E+00  0.00000000E+00  0.00000000E+00  0.00000000E+00  0.00000000E+00
  0.00000000E+00  0.00000000E+00  0.00000000E+00  0.00000000E+00  0.00000000E+00
  0.00000000E+00  0.00000000E+00  0.00000000E+00  0.00000000E+00  0.00000000E+00
  0.00000000E+00  0.00000000E+00  0.00000000E+00  0.00000000E+00  0.00000000E+00
  0.00000000E+00  0.00000000E+00  0.00000000E+00  0.00000000E+00  0.00000000E+00
  0.00000000E+00  0.00000000E+00  0.00000000E+00  0.00000000E+00  0.00000000E+00
  0.00000000E+00  0.00000000E+00  0.00000000E+00  0.00000000E+00  0.00000000E+00
  0.00000000E+00  0.00000000E+00  0.00000000E+00  0.00000000E+00
MO    5                     OCC NO =   1.00000000 ORB. ENERGY =  -3.70959010
  0.00000000E+00  0.00000000E+00  0.00000000E+00  0.00000000E+00  0.00000000E+00
  0.00000000E+00  0.00000000E+00  0.00000000E+00  0.00000000E+00  0.00000000E+00
  0.00000000E+00  0.00000000E+00  0.00000000E+00  0.00000000E+00  0.00000000E+00
  0.00000000E+00  0.00000000E+00  0.00000000E+00  0.00000000E+00  0.00000000E+00
  0.00000000E+00  3.03850408E+00  0.00000000E+00  0.00000000E+00  2.97202771E+00
  0.00000000E+00  0.00000000E+00  4.64641263E+00  0.00000000E+00  0.00000000E+00
  6.11218909E+00  0.00000000E+00  0.00000000E+00  8.37387829E+00  0.00000000E+00
  0.00000000E+00  7.46707905E+00  0.00000000E+00  0.00000000E+00  5.49958341E+00
  0.00000000E+00  0.00000000E+00  2.89093239E+00  0.00000000E+00  0.00000000E+00
  6.40519979E-01  0.00000000E+00  0.00000000E+00 -8.34977670E-01  0.00000000E+00
  0.00000000E+00  3.55574353E-01  0.00000000E+00  0.00000000E+00  1.85554355E-01
  0.00000000E+00  0.00000000E+00  4.68418797E-03  0.00000000E+00  0.00000000E+00
 -9.17527447E-05  0.00000000E+00  0.00000000E+00  5.77948068E-06  0.00000000E+00
  0.00000000E+00  0.00000000E+00  0.00000000E+00  0.00000000E+00  0.00000000E+00
  0.00000000E+00  0.00000000E+00  0.00000000E+00  0.00000000E+00  0.00000000E+00
  0.00000000E+00  0.00000000E+00  0.00000000E+00  0.00000000E+00  0.00000000E+00
  0.00000000E+00  0.00000000E+00  0.00000000E+00  0.00000000E+00  0.00000000E+00
  0.00000000E+00  0.00000000E+00  0.00000000E+00  0.00000000E+00  0.00000000E+00
  0.00000000E+00  0.00000000E+00  0.00000000E+00  0.00000000E+00  0.00000000E+00
  0.00000000E+00  0.00000000E+00  0.00000000E+00  0.00000000E+00  0.00000000E+00
  0.00000000E+00  0.00000000E+00  0.00000000E+00  0.00000000E+00  0.00000000E+00
  0.00000000E+00  0.00000000E+00  0.00000000E+00  0.00000000E+00  0.00000000E+00
  0.00000000E+00  0.00000000E+00  0.00000000E+00  0.00000000E+00  0.00000000E+00
  0.00000000E+00  0.00000000E+00  0.00000000E+00  0.00000000E+00  0.00000000E+00
  0.00000000E+00  0.00000000E+00  0.00000000E+00  0.00000000E+00
MO    6                     OCC NO =   1.00000000 ORB. ENERGY =  -3.70959010
  0.00000000E+00  0.00000000E+00  0.00000000E+00  0.00000000E+00  0.00000000E+00
  0.00000000E+00  0.00000000E+00  0.00000000E+00  0.00000000E+00  0.00000000E+00
  0.00000000E+00  0.00000000E+00  0.00000000E+00  0.00000000E+00  0.00000000E+00
  0.00000000E+00  0.00000000E+00  0.00000000E+00  0.00000000E+00  0.00000000E+00
  0.00000000E+00  0.00000000E+00  3.03850408E+00  0.00000000E+00  0.00000000E+00
  2.97202771E+00  0.00000000E+00  0.00000000E+00  4.64641263E+00  0.00000000E+00
  0.00000000E+00  6.11218909E+00  0.00000000E+00  0.00000000E+00  8.37387829E+00
  0.00000000E+00  0.00000000E+00  7.46707905E+00  0.00000000E+00  0.00000000E+00
  5.49958341E+00  0.00000000E+00  0.00000000E+00  2.89093239E+00  0.00000000E+00
  0.00000000E+00  6.40519979E-01  0.00000000E+00  0.00000000E+00 -8.34977670E-01
  0.00000000E+00  0.00000000E+00  3.55574353E-01  0.00000000E+00  0.00000000E+00
  1.85554355E-01  0.00000000E+00  0.00000000E+00  4.68418797E-03  0.00000000E+00
  0.00000000E+00 -9.17527447E-05  0.00000000E+00  0.00000000E+00  5.77948068E-06
  0.00000000E+00  0.00000000E+00  0.00000000E+00  0.00000000E+00  0.00000000E+00
  0.00000000E+00  0.00000000E+00  0.00000000E+00  0.00000000E+00  0.00000000E+00
  0.00000000E+00  0.00000000E+00  0.00000000E+00  0.00000000E+00  0.00000000E+00
  0.00000000E+00  0.00000000E+00  0.00000000E+00  0.00000000E+00  0.00000000E+00
  0.00000000E+00  0.00000000E+00  0.00000000E+00  0.00000000E+00  0.00000000E+00
  0.00000000E+00  0.00000000E+00  0.00000000E+00  0.00000000E+00  0.00000000E+00
  0.00000000E+00  0.00000000E+00  0.00000000E+00  0.00000000E+00  0.00000000E+00
  0.00000000E+00  0.00000000E+00  0.00000000E+00  0.00000000E+00  0.00000000E+00
  0.00000000E+00  0.00000000E+00  0.00000000E+00  0.00000000E+00  0.00000000E+00
  0.00000000E+00  0.00000000E+00  0.00000000E+00  0.00000000E+00  0.00000000E+00
  0.00000000E+00  0.00000000E+00  0.00000000E+00  0.00000000E+00  0.00000000E+00
  0.00000000E+00  0.00000000E+00  0.00000000E+00  0.00000000E+00
MO    7                     OCC NO =   0.66666667 ORB. ENERGY =  -0.18463149
  0.00000000E+00  0.00000000E+00  0.00000000E+00  0.00000000E+00  0.00000000E+00
  0.00000000E+00  0.00000000E+00  0.00000000E+00  0.00000000E+00  0.00000000E+00
  0.00000000E+00  0.00000000E+00  0.00000000E+00  0.00000000E+00  0.00000000E+00
  0.00000000E+00  0.00000000E+00  0.00000000E+00  0.00000000E+00  0.00000000E+00
 -7.17897454E-01  0.00000000E+00  0.00000000E+00 -7.02191300E-01  0.00000000E+00
  0.00000000E+00 -1.09779277E+00  0.00000000E+00  0.00000000E+00 -1.44410699E+00
  0.00000000E+00  0.00000000E+00 -1.97846893E+00  0.00000000E+00  0.00000000E+00
 -1.76422243E+00  0.00000000E+00  0.00000000E+00 -1.29936865E+00  0.00000000E+00
  0.00000000E+00 -6.83031173E-01  0.00000000E+00  0.00000000E+00 -1.51333568E-01
  0.00000000E+00  0.00000000E+00  2.65236082E-01  0.00000000E+00  0.00000000E+00
 -1.12950503E-01  0.00000000E+00  0.00000000E+00  2.17124776E-02  0.00000000E+00
  0.00000000E+00  1.31000016E-01  0.00000000E+00  0.00000000E+00  6.06932424E-02
  0.00000000E+00  0.00000000E+00  9.56230012E-03  0.00000000E+00  0.00000000E+00
  0.00000000E+00  0.00000000E+00  0.00000000E+00  0.00000000E+00  0.00000000E+00
  0.00000000E+00  0.00000000E+00  0.00000000E+00  0.00000000E+00  0.00000000E+00
  0.00000000E+00  0.00000000E+00  0.00000000E+00  0.00000000E+00  0.00000000E+00
  0.00000000E+00  0.00000000E+00  0.00000000E+00  0.00000000E+00  0.00000000E+00
  0.00000000E+00  0.00000000E+00  0.00000000E+00  0.00000000E+00  0.00000000E+00
  0.00000000E+00  0.00000000E+00  0.00000000E+00  0.00000000E+00  0.00000000E+00
  0.00000000E+00  0.00000000E+00  0.00000000E+00  0.00000000E+00  0.00000000E+00
  0.00000000E+00  0.00000000E+00  0.00000000E+00  0.00000000E+00  0.00000000E+00
  0.00000000E+00  0.00000000E+00  0.00000000E+00  0.00000000E+00  0.00000000E+00
  0.00000000E+00  0.00000000E+00  0.00000000E+00  0.00000000E+00  0.00000000E+00
  0.00000000E+00  0.00000000E+00  0.00000000E+00  0.00000000E+00  0.00000000E+00
  0.00000000E+00  0.00000000E+00  0.00000000E+00  0.00000000E+00
MO    8                     OCC NO =   0.66666667 ORB. ENERGY =  -0.18463149
  0.00000000E+00  0.00000000E+00  0.00000000E+00  0.00000000E+00  0.00000000E+00
  0.00000000E+00  0.00000000E+00  0.00000000E+00  0.00000000E+00  0.00000000E+00
  0.00000000E+00  0.00000000E+00  0.00000000E+00  0.00000000E+00  0.00000000E+00
  0.00000000E+00  0.00000000E+00  0.00000000E+00  0.00000000E+00  0.00000000E+00
  0.00000000E+00 -7.17897454E-01  0.00000000E+00  0.00000000E+00 -7.02191300E-01
  0.00000000E+00  0.00000000E+00 -1.09779277E+00  0.00000000E+00  0.00000000E+00
 -1.44410699E+00  0.00000000E+00  0.00000000E+00 -1.97846893E+00  0.00000000E+00
  0.00000000E+00 -1.76422243E+00  0.00000000E+00  0.00000000E+00 -1.29936865E+00
  0.00000000E+00  0.00000000E+00 -6.83031173E-01  0.00000000E+00  0.00000000E+00
 -1.51333568E-01  0.00000000E+00  0.00000000E+00  2.65236082E-01  0.00000000E+00
  0.00000000E+00 -1.12950503E-01  0.00000000E+00  0.00000000E+00  2.17124776E-02
  0.00000000E+00  0.00000000E+00  1.31000016E-01  0.00000000E+00  0.00000000E+00
  6.06932424E-02  0.00000000E+00  0.00000000E+00  9.56230012E-03  0.00000000E+00
  0.00000000E+00  0.00000000E+00  0.00000000E+00  0.00000000E+00  0.00000000E+00
  0.00000000E+00  0.00000000E+00  0.00000000E+00  0.00000000E+00  0.00000000E+00
  0.00000000E+00  0.00000000E+00  0.00000000E+00  0.00000000E+00  0.00000000E+00
  0.00000000E+00  0.00000000E+00  0.00000000E+00  0.00000000E+00  0.00000000E+00
  0.00000000E+00  0.00000000E+00  0.00000000E+00  0.00000000E+00  0.00000000E+00
  0.00000000E+00  0.00000000E+00  0.00000000E+00  0.00000000E+00  0.00000000E+00
  0.00000000E+00  0.00000000E+00  0.00000000E+00  0.00000000E+00  0.00000000E+00
  0.00000000E+00  0.00000000E+00  0.00000000E+00  0.00000000E+00  0.00000000E+00
  0.00000000E+00  0.00000000E+00  0.00000000E+00  0.00000000E+00  0.00000000E+00
  0.00000000E+00  0.00000000E+00  0.00000000E+00  0.00000000E+00  0.00000000E+00
  0.00000000E+00  0.00000000E+00  0.00000000E+00  0.00000000E+00  0.00000000E+00
  0.00000000E+00  0.00000000E+00  0.00000000E+00  0.00000000E+00
MO    9                     OCC NO =   0.66666667 ORB. ENERGY =  -0.18463149
  0.00000000E+00  0.00000000E+00  0.00000000E+00  0.00000000E+00  0.00000000E+00
  0.00000000E+00  0.00000000E+00  0.00000000E+00  0.00000000E+00  0.00000000E+00
  0.00000000E+00  0.00000000E+00  0.00000000E+00  0.00000000E+00  0.00000000E+00
  0.00000000E+00  0.00000000E+00  0.00000000E+00  0.00000000E+00  0.00000000E+00
  0.00000000E+00  0.00000000E+00 -7.17897454E-01  0.00000000E+00  0.00000000E+00
 -7.02191300E-01  0.00000000E+00  0.00000000E+00 -1.09779277E+00  0.00000000E+00
  0.00000000E+00 -1.44410699E+00  0.00000000E+00  0.00000000E+00 -1.97846893E+00
  0.00000000E+00  0.00000000E+00 -1.76422243E+00  0.00000000E+00  0.00000000E+00
 -1.29936865E+00  0.00000000E+00  0.00000000E+00 -6.83031173E-01  0.00000000E+00
  0.00000000E+00 -1.51333568E-01  0.00000000E+00  0.00000000E+00  2.65236082E-01
  0.00000000E+00  0.00000000E+00 -1.12950503E-01  0.00000000E+00  0.00000000E+00
  2.17124776E-02  0.00000000E+00  0.00000000E+00  1.31000016E-01  0.00000000E+00
  0.00000000E+00  6.06932424E-02  0.00000000E+00  0.00000000E+00  9.56230012E-03
  0.00000000E+00  0.00000000E+00  0.00000000E+00  0.00000000E+00  0.00000000E+00
  0.00000000E+00  0.00000000E+00  0.00000000E+00  0.00000000E+00  0.00000000E+00
  0.00000000E+00  0.00000000E+00  0.00000000E+00  0.00000000E+00  0.00000000E+00
  0.00000000E+00  0.00000000E+00  0.00000000E+00  0.00000000E+00  0.00000000E+00
  0.00000000E+00  0.00000000E+00  0.00000000E+00  0.00000000E+00  0.00000000E+00
  0.00000000E+00  0.00000000E+00  0.00000000E+00  0.00000000E+00  0.00000000E+00
  0.00000000E+00  0.00000000E+00  0.00000000E+00  0.00000000E+00  0.00000000E+00
  0.00000000E+00  0.00000000E+00  0.00000000E+00  0.00000000E+00  0.00000000E+00
  0.00000000E+00  0.00000000E+00  0.00000000E+00  0.00000000E+00  0.00000000E+00
  0.00000000E+00  0.00000000E+00  0.00000000E+00  0.00000000E+00  0.00000000E+00
  0.00000000E+00  0.00000000E+00  0.00000000E+00  0.00000000E+00  0.00000000E+00
  0.00000000E+00  0.00000000E+00  0.00000000E+00  0.00000000E+00
MO   11                    OCC NO =   1.00000000 ORB. ENERGY = -66.44774928
  1.44454377E+00  1.22507057E+00  1.40291026E+00  1.79732311E+00  2.46372992E+00
  3.43391945E+00  4.59933691E+00  5.54488500E+00  5.41696921E+00  3.55735929E+00
 -1.18228723E-02 -4.18920316E-02 -7.26269710E-02  1.10577125E+00  5.81463404E-02
 -4.22782067E-03  8.19869254E-04 -1.10338867E-04  3.66633777E-05 -5.30706167E-06
  0.00000000E+00  0.00000000E+00  0.00000000E+00  0.00000000E+00  0.00000000E+00
  0.00000000E+00  0.00000000E+00  0.00000000E+00  0.00000000E+00  0.00000000E+00
  0.00000000E+00  0.00000000E+00  0.00000000E+00  0.00000000E+00  0.00000000E+00
  0.00000000E+00  0.00000000E+00  0.00000000E+00  0.00000000E+00  0.00000000E+00
  0.00000000E+00  0.00000000E+00  0.00000000E+00  0.00000000E+00  0.00000000E+00
  0.00000000E+00  0.00000000E+00  0.00000000E+00  0.00000000E+00  0.00000000E+00
  0.00000000E+00  0.00000000E+00  0.00000000E+00  0.00000000E+00  0.00000000E+00
  0.00000000E+00  0.00000000E+00  0.00000000E+00  0.00000000E+00  0.00000000E+00
  0.00000000E+00  0.00000000E+00  0.00000000E+00  0.00000000E+00  0.00000000E+00
  0.00000000E+00  0.00000000E+00  0.00000000E+00  0.00000000E+00  0.00000000E+00
  0.00000000E+00  0.00000000E+00  0.00000000E+00  0.00000000E+00  0.00000000E+00
  0.00000000E+00  0.00000000E+00  0.00000000E+00  0.00000000E+00  0.00000000E+00
  0.00000000E+00  0.00000000E+00  0.00000000E+00  0.00000000E+00  0.00000000E+00
  0.00000000E+00  0.00000000E+00  0.00000000E+00  0.00000000E+00  0.00000000E+00
  0.00000000E+00  0.00000000E+00  0.00000000E+00  0.00000000E+00  0.00000000E+00
  0.00000000E+00  0.00000000E+00  0.00000000E+00  0.00000000E+00  0.00000000E+00
  0.00000000E+00  0.00000000E+00  0.00000000E+00  0.00000000E+00  0.00000000E+00
  0.00000000E+00  0.00000000E+00  0.00000000E+00  0.00000000E+00  0.00000000E+00
  0.00000000E+00  0.00000000E+00  0.00000000E+00  0.00000000E+00  0.00000000E+00
  0.00000000E+00  0.00000000E+00  0.00000000E+00  0.00000000E+00  0.00000000E+00
  0.00000000E+00  0.00000000E+00  0.00000000E+00  0.00000000E+00
MO   12                    OCC NO =   1.00000000 ORB. ENERGY =  -5.39400697
 -3.92214024E-01 -3.32623952E-01 -3.80909937E-01 -4.87998591E-01 -6.68937446E-01
 -9.32357597E-01 -1.24878489E+00 -1.50551454E+00 -1.47078360E+00 -9.65873257E-01
 -1.15546720E-01 -4.09417162E-01 -7.09794375E-01 -6.26587719E-01  6.10570776E-01
  8.03470867E-01  2.85038534E-01  1.11940521E-02 -2.07671263E-03  2.60924417E-04
  0.00000000E+00  0.00000000E+00  0.00000000E+00  0.00000000E+00  0.00000000E+00
  0.00000000E+00  0.00000000E+00  0.00000000E+00  0.00000000E+00  0.00000000E+00
  0.00000000E+00  0.00000000E+00  0.00000000E+00  0.00000000E+00  0.00000000E+00
  0.00000000E+00  0.00000000E+00  0.00000000E+00  0.00000000E+00  0.00000000E+00
  0.00000000E+00  0.00000000E+00  0.00000000E+00  0.00000000E+00  0.00000000E+00
  0.00000000E+00  0.00000000E+00  0.00000000E+00  0.00000000E+00  0.00000000E+00
  0.00000000E+00  0.00000000E+00  0.00000000E+00  0.00000000E+00  0.00000000E+00
  0.00000000E+00  0.00000000E+00  0.00000000E+00  0.00000000E+00  0.00000000E+00
  0.00000000E+00  0.00000000E+00  0.00000000E+00  0.00000000E+00  0.00000000E+00
  0.00000000E+00  0.00000000E+00  0.00000000E+00  0.00000000E+00  0.00000000E+00
  0.00000000E+00  0.00000000E+00  0.00000000E+00  0.00000000E+00  0.00000000E+00
  0.00000000E+00  0.00000000E+00  0.00000000E+00  0.00000000E+00  0.00000000E+00
  0.00000000E+00  0.00000000E+00  0.00000000E+00  0.00000000E+00  0.00000000E+00
  0.00000000E+00  0.00000000E+00  0.00000000E+00  0.00000000E+00  0.00000000E+00
  0.00000000E+00  0.00000000E+00  0.00000000E+00  0.00000000E+00  0.00000000E+00
  0.00000000E+00  0.00000000E+00  0.00000000E+00  0.00000000E+00  0.00000000E+00
  0.00000000E+00  0.00000000E+00  0.00000000E+00  0.00000000E+00  0.00000000E+00
  0.00000000E+00  0.00000000E+00  0.00000000E+00  0.00000000E+00  0.00000000E+00
  0.00000000E+00  0.00000000E+00  0.00000000E+00  0.00000000E+00  0.00000000E+00
  0.00000000E+00  0.00000000E+00  0.00000000E+00  0.00000000E+00  0.00000000E+00
  0.00000000E+00  0.00000000E+00  0.00000000E+00  0.00000000E+00
MO   13                    OCC NO =   1.00000000 ORB. ENERGY =  -0.39773632
  1.08943161E-01  9.23911498E-02  1.05803286E-01  1.35548720E-01  1.85807124E-01
  2.58975910E-01  3.46868201E-01  4.18178603E-01  4.08531577E-01  2.68285373E-01
  3.54616043E-02  1.25651247E-01  2.17837835E-01  1.93992365E-01 -2.15739022E-01
 -3.52067972E-01 -2.09765158E-01  1.08728792E-01  1.13773929E-01  2.31503584E-02
  0.00000000E+00  0.00000000E+00  0.00000000E+00  0.00000000E+00  0.00000000E+00
  0.00000000E+00  0.00000000E+00  0.00000000E+00  0.00000000E+00  0.00000000E+00
  0.00000000E+00  0.00000000E+00  0.00000000E+00  0.00000000E+00  0.00000000E+00
  0.00000000E+00  0.00000000E+00  0.00000000E+00  0.00000000E+00  0.00000000E+00
  0.00000000E+00  0.00000000E+00  0.00000000E+00  0.00000000E+00  0.00000000E+00
  0.00000000E+00  0.00000000E+00  0.00000000E+00  0.00000000E+00  0.00000000E+00
  0.00000000E+00  0.00000000E+00  0.00000000E+00  0.00000000E+00  0.00000000E+00
  0.00000000E+00  0.00000000E+00  0.00000000E+00  0.00000000E+00  0.00000000E+00
  0.00000000E+00  0.00000000E+00  0.00000000E+00  0.00000000E+00  0.00000000E+00
  0.00000000E+00  0.00000000E+00  0.00000000E+00  0.00000000E+00  0.00000000E+00
  0.00000000E+00  0.00000000E+00  0.00000000E+00  0.00000000E+00  0.00000000E+00
  0.00000000E+00  0.00000000E+00  0.00000000E+00  0.00000000E+00  0.00000000E+00
  0.00000000E+00  0.00000000E+00  0.00000000E+00  0.00000000E+00  0.00000000E+00
  0.00000000E+00  0.00000000E+00  0.00000000E+00  0.00000000E+00  0.00000000E+00
  0.00000000E+00  0.00000000E+00  0.00000000E+00  0.00000000E+00  0.00000000E+00
  0.00000000E+00  0.00000000E+00  0.00000000E+00  0.00000000E+00  0.00000000E+00
  0.00000000E+00  0.00000000E+00  0.00000000E+00  0.00000000E+00  0.00000000E+00
  0.00000000E+00  0.00000000E+00  0.00000000E+00  0.00000000E+00  0.00000000E+00
  0.00000000E+00  0.00000000E+00  0.00000000E+00  0.00000000E+00  0.00000000E+00
  0.00000000E+00  0.00000000E+00  0.00000000E+00  0.00000000E+00  0.00000000E+00
  0.00000000E+00  0.00000000E+00  0.00000000E+00  0.00000000E+00
MO   14                    OCC NO =   1.00000000 ORB. ENERGY =  -3.69895706
  0.00000000E+00  0.00000000E+00  0.00000000E+00  0.00000000E+00  0.00000000E+00
  0.00000000E+00  0.00000000E+00  0.00000000E+00  0.00000000E+00  0.00000000E+00
  0.00000000E+00  0.00000000E+00  0.00000000E+00  0.00000000E+00  0.00000000E+00
  0.00000000E+00  0.00000000E+00  0.00000000E+00  0.00000000E+00  0.00000000E+00
  3.03440283E+00  0.00000000E+00  0.00000000E+00  2.96801619E+00  0.00000000E+00
  0.00000000E+00  4.64014110E+00  0.00000000E+00  0.00000000E+00  6.10393911E+00
  0.00000000E+00  0.00000000E+00  8.36257558E+00  0.00000000E+00  0.00000000E+00
  7.45700029E+00  0.00000000E+00  0.00000000E+00  5.49216030E+00  0.00000000E+00
  0.00000000E+00  2.88703033E+00  0.00000000E+00  0.00000000E+00  6.39655432E-01
  0.00000000E+00  0.00000000E+00 -8.42721695E-01  0.00000000E+00  0.00000000E+00
  3.58872137E-01  0.00000000E+00  0.00000000E+00  1.86871631E-01  0.00000000E+00
  0.00000000E+00  4.09906832E-03  0.00000000E+00  0.00000000E+00 -3.81458466E-05
  0.00000000E+00  0.00000000E+00 -4.36063523E-08  0.00000000E+00  0.00000000E+00
  0.00000000E+00  0.00000000E+00  0.00000000E+00  0.00000000E+00  0.00000000E+00
  0.00000000E+00  0.00000000E+00  0.00000000E+00  0.00000000E+00  0.00000000E+00
  0.00000000E+00  0.00000000E+00  0.00000000E+00  0.00000000E+00  0.00000000E+00
  0.00000000E+00  0.00000000E+00  0.00000000E+00  0.00000000E+00  0.00000000E+00
  0.00000000E+00  0.00000000E+00  0.00000000E+00  0.00000000E+00  0.00000000E+00
  0.00000000E+00  0.00000000E+00  0.00000000E+00  0.00000000E+00  0.00000000E+00
  0.00000000E+00  0.00000000E+00  0.00000000E+00  0.00000000E+00  0.00000000E+00