atomref-proatoms Sm_q0_mult7_nist x2c-QZVPall
GAUSSIAN             63 MOL ORBITALS    437 PRIMITIVES        1 NUCLEI
  Sm   1    (CENTRE  1)   0.00000000  0.00000000  0.00000000  CHARGE = 62.0
CENTRE ASSIGNMENTS    1  1  1  1  1  1  1  1  1  1  1  1  1  1  1  1  1  1  1  1
CENTRE ASSIGNMENTS    1  1  1  1  1  1  1  1  1  1  1  1  1  1  1  1  1  1  1  1
CENTRE ASSIGNMENTS    1  1  1  1  1  1  1  1  1  1  1  1  1  1  1  1  1  1  1  1
CENTRE ASSIGNMENTS    1  1  1  1  1  1  1  1  1  1  1  1  1  1  1  1  1  1  1  1
CENTRE ASSIGNMENTS    1  1  1  1  1  1  1  1  1  1  1  1  1  1  1  1  1  1  1  1
CENTRE ASSIGNMENTS    1  1  1  1  1  1  1  1  1  1  1  1  1  1  1  1  1  1  1  1
CENTRE ASSIGNMENTS    1  1  1  1  1  1  1  1  1  1  1  1  1  1  1  1  1  1  1  1
CENTRE ASSIGNMENTS    1  1  1  1  1  1  1  1  1  1  1  1  1  1  1  1  1  1  1  1
CENTRE ASSIGNMENTS    1  1  1  1  1  1  1  1  1  1  1  1  1  1  1  1  1  1  1  1
CENTRE ASSIGNMENTS    1  1  1  1  1  1  1  1  1  1  1  1  1  1  1  1  1  1  1  1
CENTRE ASSIGNMENTS    1  1  1  1  1  1  1  1  1  1  1  1  1  1  1  1  1  1  1  1
CENTRE ASSIGNMENTS    1  1  1  1  1  1  1  1  1  1  1  1  1  1  1  1  1  1  1  1
CENTRE ASSIGNMENTS    1  1  1  1  1  1  1  1  1  1  1  1  1  1  1  1  1  1  1  1
CENTRE ASSIGNMENTS    1  1  1  1  1  1  1  1  1  1  1  1  1  1  1  1  1  1  1  1
CENTRE ASSIGNMENTS    1  1  1  1  1  1  1  1  1  1  1  1  1  1  1  1  1  1  1  1
CENTRE ASSIGNMENTS    1  1  1  1  1  1  1  1  1  1  1  1  1  1  1  1  1  1  1  1
CENTRE ASSIGNMENTS    1  1  1  1  1  1  1  1  1  1  1  1  1  1  1  1  1  1  1  1
CENTRE ASSIGNMENTS    1  1  1  1  1  1  1  1  1  1  1  1  1  1  1  1  1  1  1  1
CENTRE ASSIGNMENTS    1  1  1  1  1  1  1  1  1  1  1  1  1  1  1  1  1  1  1  1
CENTRE ASSIGNMENTS    1  1  1  1  1  1  1  1  1  1  1  1  1  1  1  1  1  1  1  1
CENTRE ASSIGNMENTS    1  1  1  1  1  1  1  1  1  1  1  1  1  1  1  1  1  1  1  1
CENTRE ASSIGNMENTS    1  1  1  1  1  1  1  1  1  1  1  1  1  1  1  1  1
TYPE ASSIGNMENTS      1  1  1  1  1  1  1  1  1  1  1  1  1  1  1  1  1  1  1  1
TYPE ASSIGNMENTS      1  1  1  1  1  1  1  1  1  1  2  3  4  2  3  4  2  3  4  2
TYPE ASSIGNMENTS      3  4  2  3  4  2  3  4  2  3  4  2  3  4  2  3  4  2  3  4
TYPE ASSIGNMENTS      2  3  4  2  3  4  2  3  4  2  3  4  2  3  4  2  3  4  2  3
TYPE ASSIGNMENTS      4  2  3  4  2  3  4  2  3  4  2  3  4  2  3  4  2  3  4  2
TYPE ASSIGNMENTS      3  4  2  3  4  2  3  4  2  3  4  2  3  4  2  3  4  2  3  4
TYPE ASSIGNMENTS      2  3  4  2  3  4  2  3  4  2  3  4  5  8  9  6 10  7  5  8
TYPE ASSIGNMENTS      9  6 10  7  5  8  9  6 10  7  5  8  9  6 10  7  5  8  9  6
TYPE ASSIGNMENTS     10  7  5  8  9  6 10  7  5  8  9  6 10  7  5  8  9  6 10  7
TYPE ASSIGNMENTS      5  8  9  6 10  7  5  8  9  6 10  7  5  8  9  6 10  7  5  8
TYPE ASSIGNMENTS      9  6 10  7  5  8  9  6 10  7  5  8  9  6 10  7  5  8  9  6
TYPE ASSIGNMENTS     10  7  5  8  9  6 10  7  5  8  9  6 10  7  5  8  9  6 10  7
TYPE ASSIGNMENTS      5  8  9  6 10  7  5  8  9  6 10  7 11 14 15 17 20 18 12 16
TYPE ASSIGNMENTS     19 13 11 14 15 17 20 18 12 16 19 13 11 14 15 17 20 18 12 16
TYPE ASSIGNMENTS     19 13 11 14 15 17 20 18 12 16 19 13 11 14 15 17 20 18 12 16
TYPE ASSIGNMENTS     19 13 11 14 15 17 20 18 12 16 19 13 11 14 15 17 20 18 12 16
TYPE ASSIGNMENTS     19 13 11 14 15 17 20 18 12 16 19 13 11 14 15 17 20 18 12 16
TYPE ASSIGNMENTS     19 13 11 14 15 17 20 18 12 16 19 13 11 14 15 17 20 18 12 16
TYPE ASSIGNMENTS     19 13 21 24 25 30 33 31 26 34 35 28 22 27 32 29 23 21 24 25
TYPE ASSIGNMENTS     30 33 31 26 34 35 28 22 27 32 29 23 21 24 25 30 33 31 26 34
TYPE ASSIGNMENTS     35 28 22 27 32 29 23 21 24 25 30 33 31 26 34 35 28 22 27 32
TYPE ASSIGNMENTS     29 23 21 24 25 30 33 31 26 34 35 28 22 27 32 29 23
EXPONENTS  6.9257180E+07 1.9228548E+07 5.7879710E+06 1.8090336E+06 6.1149394E+05
EXPONENTS  2.1712814E+05 8.1830349E+04 3.2093100E+04 1.3638845E+04 6.1115224E+03
EXPONENTS  2.8017758E+03 1.1065968E+03 5.5934160E+04 1.3240268E+04 4.2530560E+03
EXPONENTS  1.5705575E+03 6.3303767E+02 3.5964448E+02 1.3461082E+02 7.4268971E+01
EXPONENTS  4.4398071E+01 1.9915089E+01 1.0544508E+01 4.9285426E+00 2.4640188E+00
EXPONENTS  9.6706326E-01 5.0375818E-01 2.2601483E-01 6.9297774E-02 2.6800271E-02
EXPONENTS  1.7330000E+02 1.7330000E+02 1.7330000E+02 3.3597520E+06 3.3597520E+06
EXPONENTS  3.3597520E+06 9.7047638E+05 9.7047638E+05 9.7047638E+05 2.9546316E+05
EXPONENTS  2.9546316E+05 2.9546316E+05 9.4811781E+04 9.4811781E+04 9.4811781E+04
EXPONENTS  3.2067263E+04 3.2067263E+04 3.2067263E+04 1.1431470E+04 1.1431470E+04
EXPONENTS  1.1431470E+04 4.2951951E+03 4.2951951E+03 4.2951951E+03 1.7006852E+03
EXPONENTS  1.7006852E+03 1.7006852E+03 7.0255623E+02 7.0255623E+02 7.0255623E+02
EXPONENTS  3.1331599E+02 3.1331599E+02 3.1331599E+02 1.4986155E+02 1.4986155E+02
EXPONENTS  1.4986155E+02 7.4745893E+01 7.4745893E+01 7.4745893E+01 3.6908923E+01
EXPONENTS  3.6908923E+01 3.6908923E+01 1.1258118E+03 1.1258118E+03 1.1258118E+03
EXPONENTS  3.9058527E+02 3.9058527E+02 3.9058527E+02 1.7212419E+02 1.7212419E+02
EXPONENTS  1.7212419E+02 4.3416341E+01 4.3416341E+01 4.3416341E+01 2.2477758E+01
EXPONENTS  2.2477758E+01 2.2477758E+01 1.1562464E+01 1.1562464E+01 1.1562464E+01
EXPONENTS  5.1761656E+00 5.1761656E+00 5.1761656E+00 6.8925772E+01 6.8925772E+01
EXPONENTS  6.8925772E+01 2.2441924E+01 2.2441924E+01 2.2441924E+01 6.8968616E+00
EXPONENTS  6.8968616E+00 6.8968616E+00 3.7573035E+00 3.7573035E+00 3.7573035E+00
EXPONENTS  1.8648927E+00 1.8648927E+00 1.8648927E+00 3.2885355E+00 3.2885355E+00
EXPONENTS  3.2885355E+00 1.0864854E+00 1.0864854E+00 1.0864854E+00 5.9124500E-01
EXPONENTS  5.9124500E-01 5.9124500E-01 6.7994632E-01 6.7994632E-01 6.7994632E-01
EXPONENTS  2.8177436E-01 2.8177436E-01 2.8177436E-01 1.1943644E-01 1.1943644E-01
EXPONENTS  1.1943644E-01 6.2746709E-02 6.2746709E-02 6.2746709E-02 1.8972438E-02
EXPONENTS  1.8972438E-02 1.8972438E-02 3.7972062E+03 3.7972062E+03 3.7972062E+03
EXPONENTS  3.7972062E+03 3.7972062E+03 3.7972062E+03 1.1418969E+03 1.1418969E+03
EXPONENTS  1.1418969E+03 1.1418969E+03 1.1418969E+03 1.1418969E+03 4.4850084E+02
EXPONENTS  4.4850084E+02 4.4850084E+02 4.4850084E+02 4.4850084E+02 4.4850084E+02
EXPONENTS  1.9968560E+02 1.9968560E+02 1.9968560E+02 1.9968560E+02 1.9968560E+02
EXPONENTS  1.9968560E+02 9.6247645E+01 9.6247645E+01 9.6247645E+01 9.6247645E+01
EXPONENTS  9.6247645E+01 9.6247645E+01 4.8971419E+01 4.8971419E+01 4.8971419E+01
EXPONENTS  4.8971419E+01 4.8971419E+01 4.8971419E+01 2.5353111E+01 2.5353111E+01
EXPONENTS  2.5353111E+01 2.5353111E+01 2.5353111E+01 2.5353111E+01 1.3002629E+01
EXPONENTS  1.3002629E+01 1.3002629E+01 1.3002629E+01 1.3002629E+01 1.3002629E+01
EXPONENTS  2.4000000E+01 2.4000000E+01 2.4000000E+01 2.4000000E+01 2.4000000E+01
EXPONENTS  2.4000000E+01 1.7616587E+02 1.7616587E+02 1.7616587E+02 1.7616587E+02
EXPONENTS  1.7616587E+02 1.7616587E+02 7.0127497E+01 7.0127497E+01 7.0127497E+01
EXPONENTS  7.0127497E+01 7.0127497E+01 7.0127497E+01 1.5312542E+01 1.5312542E+01
EXPONENTS  1.5312542E+01 1.5312542E+01 1.5312542E+01 1.5312542E+01 6.2412790E+00
EXPONENTS  6.2412790E+00 6.2412790E+00 6.2412790E+00 6.2412790E+00 6.2412790E+00
EXPONENTS  9.0236145E+00 9.0236145E+00 9.0236145E+00 9.0236145E+00 9.0236145E+00
EXPONENTS  9.0236145E+00 3.4811382E+00 3.4811382E+00 3.4811382E+00 3.4811382E+00
EXPONENTS  3.4811382E+00 3.4811382E+00 1.6982549E+00 1.6982549E+00 1.6982549E+00
EXPONENTS  1.6982549E+00 1.6982549E+00 1.6982549E+00 6.9911796E-01 6.9911796E-01
EXPONENTS  6.9911796E-01 6.9911796E-01 6.9911796E-01 6.9911796E-01 2.6417016E-01
EXPONENTS  2.6417016E-01 2.6417016E-01 2.6417016E-01 2.6417016E-01 2.6417016E-01
EXPONENTS  9.3000000E-02 9.3000000E-02 9.3000000E-02 9.3000000E-02 9.3000000E-02
EXPONENTS  9.3000000E-02 2.8845722E-02 2.8845722E-02 2.8845722E-02 2.8845722E-02
EXPONENTS  2.8845722E-02 2.8845722E-02 1.9387901E+02 1.9387901E+02 1.9387901E+02
EXPONENTS  1.9387901E+02 1.9387901E+02 1.9387901E+02 1.9387901E+02 1.9387901E+02
EXPONENTS  1.9387901E+02 1.9387901E+02 7.5721163E+01 7.5721163E+01 7.5721163E+01
EXPONENTS  7.5721163E+01 7.5721163E+01 7.5721163E+01 7.5721163E+01 7.5721163E+01
EXPONENTS  7.5721163E+01 7.5721163E+01 3.7384919E+01 3.7384919E+01 3.7384919E+01
EXPONENTS  3.7384919E+01 3.7384919E+01 3.7384919E+01 3.7384919E+01 3.7384919E+01
EXPONENTS  3.7384919E+01 3.7384919E+01 1.8645782E+01 1.8645782E+01 1.8645782E+01
EXPONENTS  1.8645782E+01 1.8645782E+01 1.8645782E+01 1.8645782E+01 1.8645782E+01
EXPONENTS  1.8645782E+01 1.8645782E+01 9.3452894E+00 9.3452894E+00 9.3452894E+00
EXPONENTS  9.3452894E+00 9.3452894E+00 9.3452894E+00 9.3452894E+00 9.3452894E+00
EXPONENTS  9.3452894E+00 9.3452894E+00 4.7230708E+00 4.7230708E+00 4.7230708E+00
EXPONENTS  4.7230708E+00 4.7230708E+00 4.7230708E+00 4.7230708E+00 4.7230708E+00
EXPONENTS  4.7230708E+00 4.7230708E+00 2.3694253E+00 2.3694253E+00 2.3694253E+00
EXPONENTS  2.3694253E+00 2.3694253E+00 2.3694253E+00 2.3694253E+00 2.3694253E+00
EXPONENTS  2.3694253E+00 2.3694253E+00 1.1427037E+00 1.1427037E+00 1.1427037E+00
EXPONENTS  1.1427037E+00 1.1427037E+00 1.1427037E+00 1.1427037E+00 1.1427037E+00
EXPONENTS  1.1427037E+00 1.1427037E+00 5.2102955E-01 5.2102955E-01 5.2102955E-01
EXPONENTS  5.2102955E-01 5.2102955E-01 5.2102955E-01 5.2102955E-01 5.2102955E-01
EXPONENTS  5.2102955E-01 5.2102955E-01 2.1388696E-01 2.1388696E-01 2.1388696E-01
EXPONENTS  2.1388696E-01 2.1388696E-01 2.1388696E-01 2.1388696E-01 2.1388696E-01
EXPONENTS  2.1388696E-01 2.1388696E-01 7.1000000E-02 7.1000000E-02 7.1000000E-02
EXPONENTS  7.1000000E-02 7.1000000E-02 7.1000000E-02 7.1000000E-02 7.1000000E-02
EXPONENTS  7.1000000E-02 7.1000000E-02 2.0623400E+01 2.0623400E+01 2.0623400E+01
EXPONENTS  2.0623400E+01 2.0623400E+01 2.0623400E+01 2.0623400E+01 2.0623400E+01
EXPONENTS  2.0623400E+01 2.0623400E+01 2.0623400E+01 2.0623400E+01 2.0623400E+01
EXPONENTS  2.0623400E+01 2.0623400E+01 9.3855000E+00 9.3855000E+00 9.3855000E+00
EXPONENTS  9.3855000E+00 9.3855000E+00 9.3855000E+00 9.3855000E+00 9.3855000E+00
EXPONENTS  9.3855000E+00 9.3855000E+00 9.3855000E+00 9.3855000E+00 9.3855000E+00
EXPONENTS  9.3855000E+00 9.3855000E+00 4.2790000E+00 4.2790000E+00 4.2790000E+00
EXPONENTS  4.2790000E+00 4.2790000E+00 4.2790000E+00 4.2790000E+00 4.2790000E+00
EXPONENTS  4.2790000E+00 4.2790000E+00 4.2790000E+00 4.2790000E+00 4.2790000E+00
EXPONENTS  4.2790000E+00 4.2790000E+00 1.8883000E+00 1.8883000E+00 1.8883000E+00
EXPONENTS  1.8883000E+00 1.8883000E+00 1.8883000E+00 1.8883000E+00 1.8883000E+00
EXPONENTS  1.8883000E+00 1.8883000E+00 1.8883000E+00 1.8883000E+00 1.8883000E+00
EXPONENTS  1.8883000E+00 1.8883000E+00 4.6377000E-01 4.6377000E-01 4.6377000E-01
EXPONENTS  4.6377000E-01 4.6377000E-01 4.6377000E-01 4.6377000E-01 4.6377000E-01
EXPONENTS  4.6377000E-01 4.6377000E-01 4.6377000E-01 4.6377000E-01 4.6377000E-01
EXPONENTS  4.6377000E-01 4.6377000E-01
MO    1                     OCC NO =   1.00000000 ORB. ENERGY = -1715.88632887
  8.92459625E+01  8.35589356E+01  7.80077007E+01  6.69486810E+01  6.01277344E+01
  5.57627209E+01  5.24638690E+01  5.16013397E+01  5.07092140E+01  4.59111450E+01
  4.19819981E+01  2.56095476E+01  3.22013293E+00  6.45303783E+00  1.62857291E+01
  2.94579947E+01  2.06972810E+01  9.72072364E+00  1.26782441E+00 -5.07277825E-01
  2.06195282E-01 -5.28338781E-02  2.11903486E-02 -6.51721673E-03  2.10055510E-03
 -5.68918523E-04  2.25855207E-04 -4.42127597E-05  5.23275312E-06 -8.29093314E-07
  0.00000000E+00  0.00000000E+00  0.00000000E+00  0.00000000E+00  0.00000000E+00
  0.00000000E+00  0.00000000E+00  0.00000000E+00  0.00000000E+00  0.00000000E+00
  0.00000000E+00  0.00000000E+00  0.00000000E+00  0.00000000E+00  0.00000000E+00
  0.00000000E+00  0.00000000E+00  0.00000000E+00  0.00000000E+00  0.00000000E+00
  0.00000000E+00  0.00000000E+00  0.00000000E+00  0.00000000E+00  0.00000000E+00
  0.00000000E+00  0.00000000E+00  0.00000000E+00  0.00000000E+00  0.00000000E+00
  0.00000000E+00  0.00000000E+00  0.00000000E+00  0.00000000E+00  0.00000000E+00
  0.00000000E+00  0.00000000E+00  0.00000000E+00  0.00000000E+00  0.00000000E+00
  0.00000000E+00  0.00000000E+00  0.00000000E+00  0.00000000E+00  0.00000000E+00
  0.00000000E+00  0.00000000E+00  0.00000000E+00  0.00000000E+00  0.00000000E+00
  0.00000000E+00  0.00000000E+00  0.00000000E+00  0.00000000E+00  0.00000000E+00
  0.00000000E+00  0.00000000E+00  0.00000000E+00  0.00000000E+00  0.00000000E+00
  0.00000000E+00  0.00000000E+00  0.00000000E+00  0.00000000E+00  0.00000000E+00
  0.00000000E+00  0.00000000E+00  0.00000000E+00  0.00000000E+00  0.00000000E+00
  0.00000000E+00  0.00000000E+00  0.00000000E+00  0.00000000E+00  0.00000000E+00
  0.00000000E+00  0.00000000E+00  0.00000000E+00  0.00000000E+00  0.00000000E+00
  0.00000000E+00  0.00000000E+00  0.00000000E+00  0.00000000E+00  0.00000000E+00
  0.00000000E+00  0.00000000E+00  0.00000000E+00  0.00000000E+00  0.00000000E+00
  0.00000000E+00  0.00000000E+00  0.00000000E+00  0.00000000E+00  0.00000000E+00
  0.00000000E+00  0.00000000E+00  0.00000000E+00  0.00000000E+00  0.00000000E+00
  0.00000000E+00  0.00000000E+00  0.00000000E+00  0.00000000E+00  0.00000000E+00
  0.00000000E+00  0.00000000E+00  0.00000000E+00  0.00000000E+00  0.00000000E+00
  0.00000000E+00  0.00000000E+00  0.00000000E+00  0.00000000E+00  0.00000000E+00
  0.00000000E+00  0.00000000E+00  0.00000000E+00  0.00000000E+00  0.00000000E+00
  0.00000000E+00  0.00000000E+00  0.00000000E+00  0.00000000E+00  0.00000000E+00
  0.00000000E+00  0.00000000E+00  0.00000000E+00  0.00000000E+00  0.00000000E+00
  0.00000000E+00  0.00000000E+00  0.00000000E+00  0.00000000E+00  0.00000000E+00
  0.00000000E+00  0.00000000E+00  0.00000000E+00  0.00000000E+00  0.00000000E+00
  0.00000000E+00  0.00000000E+00  0.00000000E+00  0.00000000E+00  0.00000000E+00
  0.00000000E+00  0.00000000E+00  0.00000000E+00  0.00000000E+00  0.00000000E+00
  0.00000000E+00  0.00000000E+00  0.00000000E+00  0.00000000E+00  0.00000000E+00
  0.00000000E+00  0.00000000E+00  0.00000000E+00  0.00000000E+00  0.00000000E+00
  0.00000000E+00  0.00000000E+00  0.00000000E+00  0.00000000E+00  0.00000000E+00
  0.00000000E+00  0.00000000E+00  0.00000000E+00  0.00000000E+00  0.00000000E+00
  0.00000000E+00  0.00000000E+00  0.00000000E+00  0.00000000E+00  0.00000000E+00
  0.00000000E+00  0.00000000E+00  0.00000000E+00  0.00000000E+00  0.00000000E+00
  0.00000000E+00  0.00000000E+00  0.00000000E+00  0.00000000E+00  0.00000000E+00
  0.00000000E+00  0.00000000E+00  0.00000000E+00  0.00000000E+00  0.00000000E+00
  0.00000000E+00  0.00000000E+00  0.00000000E+00  0.00000000E+00  0.00000000E+00
  0.00000000E+00  0.00000000E+00  0.00000000E+00  0.00000000E+00  0.00000000E+00
  0.00000000E+00  0.00000000E+00  0.00000000E+00  0.00000000E+00  0.00000000E+00
  0.00000000E+00  0.00000000E+00  0.00000000E+00  0.00000000E+00  0.00000000E+00
  0.00000000E+00  0.00000000E+00  0.00000000E+00  0.00000000E+00  0.00000000E+00
  0.00000000E+00  0.00000000E+00  0.00000000E+00  0.00000000E+00  0.00000000E+00
  0.00000000E+00  0.00000000E+00  0.00000000E+00  0.00000000E+00  0.00000000E+00
  0.00000000E+00  0.00000000E+00  0.00000000E+00  0.00000000E+00  0.00000000E+00
  0.00000000E+00  0.00000000E+00  0.00000000E+00  0.00000000E+00  0.00000000E+00
  0.00000000E+00  0.00000000E+00  0.00000000E+00  0.00000000E+00  0.00000000E+00
  0.00000000E+00  0.00000000E+00  0.00000000E+00  0.00000000E+00  0.00000000E+00
  0.00000000E+00  0.00000000E+00  0.00000000E+00  0.00000000E+00  0.00000000E+00
  0.00000000E+00  0.00000000E+00  0.00000000E+00  0.00000000E+00  0.00000000E+00
  0.00000000E+00  0.00000000E+00  0.00000000E+00  0.00000000E+00  0.00000000E+00
  0.00000000E+00  0.00000000E+00  0.00000000E+00  0.00000000E+00  0.00000000E+00
  0.00000000E+00  0.00000000E+00  0.00000000E+00  0.00000000E+00  0.00000000E+00
  0.00000000E+00  0.00000000E+00  0.00000000E+00  0.00000000E+00  0.00000000E+00
  0.00000000E+00  0.00000000E+00  0.00000000E+00  0.00000000E+00  0.00000000E+00
  0.00000000E+00  0.00000000E+00  0.00000000E+00  0.00000000E+00  0.00000000E+00
  0.00000000E+00  0.00000000E+00  0.00000000E+00  0.00000000E+00  0.00000000E+00
  0.00000000E+00  0.00000000E+00  0.00000000E+00  0.00000000E+00  0.00000000E+00
  0.00000000E+00  0.00000000E+00  0.00000000E+00  0.00000000E+00  0.00000000E+00
  0.00000000E+00  0.00000000E+00  0.00000000E+00  0.00000000E+00  0.00000000E+00
  0.00000000E+00  0.00000000E+00  0.00000000E+00  0.00000000E+00  0.00000000E+00
  0.00000000E+00  0.00000000E+00  0.00000000E+00  0.00000000E+00  0.00000000E+00
  0.00000000E+00  0.00000000E+00  0.00000000E+00  0.00000000E+00  0.00000000E+00
  0.00000000E+00  0.00000000E+00  0.00000000E+00  0.00000000E+00  0.00000000E+00
  0.00000000E+00  0.00000000E+00  0.00000000E+00  0.00000000E+00  0.00000000E+00
  0.00000000E+00  0.00000000E+00  0.00000000E+00  0.00000000E+00  0.00000000E+00
  0.00000000E+00  0.00000000E+00  0.00000000E+00  0.00000000E+00  0.00000000E+00
  0.00000000E+00  0.00000000E+00  0.00000000E+00  0.00000000E+00  0.00000000E+00
  0.00000000E+00  0.00000000E+00  0.00000000E+00  0.00000000E+00  0.00000000E+00
  0.00000000E+00  0.00000000E+00  0.00000000E+00  0.00000000E+00  0.00000000E+00
  0.00000000E+00  0.00000000E+00  0.00000000E+00  0.00000000E+00  0.00000000E+00
  0.00000000E+00  0.00000000E+00  0.00000000E+00  0.00000000E+00  0.00000000E+00
  0.00000000E+00  0.00000000E+00  0.00000000E+00  0.00000000E+00  0.00000000E+00
  0.00000000E+00  0.00000000E+00  0.00000000E+00  0.00000000E+00  0.00000000E+00
  0.00000000E+00  0.00000000E+00  0.00000000E+00  0.00000000E+00  0.00000000E+00
  0.00000000E+00  0.00000000E+00  0.00000000E+00  0.00000000E+00  0.00000000E+00
  0.00000000E+00  0.00000000E+00  0.00000000E+00  0.00000000E+00  0.00000000E+00
  0.00000000E+00  0.00000000E+00  0.00000000E+00  0.00000000E+00  0.00000000E+00
  0.00000000E+00  0.00000000E+00  0.00000000E+00  0.00000000E+00  0.00000000E+00
  0.00000000E+00  0.00000000E+00  0.00000000E+00  0.00000000E+00  0.00000000E+00
  0.00000000E+00  0.00000000E+00
MO    2                     OCC NO =   1.00000000 ORB. ENERGY = -281.45162419
 -3.26885470E+01 -3.06055324E+01 -2.85722550E+01 -2.45216148E+01 -2.20232739E+01
 -2.04244794E+01 -1.92161931E+01 -1.89002704E+01 -1.85735072E+01 -1.68160954E+01
 -1.53769479E+01 -9.38013193E+00 -1.96288013E+00 -3.93354560E+00 -9.92720943E+00
 -1.79565607E+01 -1.65924885E+01 -2.10659296E+00  1.14551109E+01  7.65259684E+00
  3.40204405E+00  2.64183780E-01 -3.23427851E-02  6.86467573E-03 -1.96610068E-03
  4.87231879E-04 -1.88382359E-04  3.65786551E-05 -4.29829969E-06  6.80138045E-07
  0.00000000E+00  0.00000000E+00  0.00000000E+00  0.00000000E+00  0.00000000E+00
  0.00000000E+00  0.00000000E+00  0.00000000E+00  0.00000000E+00  0.00000000E+00
  0.00000000E+00  0.00000000E+00  0.00000000E+00  0.00000000E+00  0.00000000E+00
  0.00000000E+00  0.00000000E+00  0.00000000E+00  0.00000000E+00  0.00000000E+00
  0.00000000E+00  0.00000000E+00  0.00000000E+00  0.00000000E+00  0.00000000E+00
  0.00000000E+00  0.00000000E+00  0.00000000E+00  0.00000000E+00  0.00000000E+00
  0.00000000E+00  0.00000000E+00  0.00000000E+00  0.00000000E+00  0.00000000E+00
  0.00000000E+00  0.00000000E+00  0.00000000E+00  0.00000000E+00  0.00000000E+00
  0.00000000E+00  0.00000000E+00  0.00000000E+00  0.00000000E+00  0.00000000E+00
  0.00000000E+00  0.00000000E+00  0.00000000E+00  0.00000000E+00  0.00000000E+00
  0.00000000E+00  0.00000000E+00  0.00000000E+00  0.00000000E+00  0.00000000E+00
  0.00000000E+00  0.00000000E+00  0.00000000E+00  0.00000000E+00  0.00000000E+00
  0.00000000E+00  0.00000000E+00  0.00000000E+00  0.00000000E+00  0.00000000E+00
  0.00000000E+00  0.00000000E+00  0.00000000E+00  0.00000000E+00  0.00000000E+00
  0.00000000E+00  0.00000000E+00  0.00000000E+00  0.00000000E+00  0.00000000E+00
  0.00000000E+00  0.00000000E+00  0.00000000E+00  0.00000000E+00  0.00000000E+00
  0.00000000E+00  0.00000000E+00  0.00000000E+00  0.00000000E+00  0.00000000E+00
  0.00000000E+00  0.00000000E+00  0.00000000E+00  0.00000000E+00  0.00000000E+00
  0.00000000E+00  0.00000000E+00  0.00000000E+00  0.00000000E+00  0.00000000E+00
  0.00000000E+00  0.00000000E+00  0.00000000E+00  0.00000000E+00  0.00000000E+00
  0.00000000E+00  0.00000000E+00  0.00000000E+00  0.00000000E+00  0.00000000E+00
  0.00000000E+00  0.00000000E+00  0.00000000E+00  0.00000000E+00  0.00000000E+00
  0.00000000E+00  0.00000000E+00  0.00000000E+00  0.00000000E+00  0.00000000E+00
  0.00000000E+00  0.00000000E+00  0.00000000E+00  0.00000000E+00  0.00000000E+00
  0.00000000E+00  0.00000000E+00  0.00000000E+00  0.00000000E+00  0.00000000E+00
  0.00000000E+00  0.00000000E+00  0.00000000E+00  0.00000000E+00  0.00000000E+00
  0.00000000E+00  0.00000000E+00  0.00000000E+00  0.00000000E+00  0.00000000E+00
  0.00000000E+00  0.00000000E+00  0.00000000E+00  0.00000000E+00  0.00000000E+00
  0.00000000E+00  0.00000000E+00  0.00000000E+00  0.00000000E+00  0.00000000E+00
  0.00000000E+00  0.00000000E+00  0.00000000E+00  0.00000000E+00  0.00000000E+00
  0.00000000E+00  0.00000000E+00  0.00000000E+00  0.00000000E+00  0.00000000E+00
  0.00000000E+00  0.00000000E+00  0.00000000E+00  0.00000000E+00  0.00000000E+00
  0.00000000E+00  0.00000000E+00  0.00000000E+00  0.00000000E+00  0.00000000E+00
  0.00000000E+00  0.00000000E+00  0.00000000E+00  0.00000000E+00  0.00000000E+00
  0.00000000E+00  0.00000000E+00  0.00000000E+00  0.00000000E+00  0.00000000E+00
  0.00000000E+00  0.00000000E+00  0.00000000E+00  0.00000000E+00  0.00000000E+00
  0.00000000E+00  0.00000000E+00  0.00000000E+00  0.00000000E+00  0.00000000E+00
  0.00000000E+00  0.00000000E+00  0.00000000E+00  0.00000000E+00  0.00000000E+00
  0.00000000E+00  0.00000000E+00  0.00000000E+00  0.00000000E+00  0.00000000E+00
  0.00000000E+00  0.00000000E+00  0.00000000E+00  0.00000000E+00  0.00000000E+00
  0.00000000E+00  0.00000000E+00  0.00000000E+00  0.00000000E+00  0.00000000E+00
  0.00000000E+00  0.00000000E+00  0.00000000E+00  0.00000000E+00  0.00000000E+00
  0.00000000E+00  0.00000000E+00  0.00000000E+00  0.00000000E+00  0.00000000E+00
  0.00000000E+00  0.00000000E+00  0.00000000E+00  0.00000000E+00  0.00000000E+00
  0.00000000E+00  0.00000000E+00  0.00000000E+00  0.00000000E+00  0.00000000E+00
  0.00000000E+00  0.00000000E+00  0.00000000E+00  0.00000000E+00  0.00000000E+00
  0.00000000E+00  0.00000000E+00  0.00000000E+00  0.00000000E+00  0.00000000E+00
  0.00000000E+00  0.00000000E+00  0.00000000E+00  0.00000000E+00  0.00000000E+00
  0.00000000E+00  0.00000000E+00  0.00000000E+00  0.00000000E+00  0.00000000E+00
  0.00000000E+00  0.00000000E+00  0.00000000E+00  0.00000000E+00  0.00000000E+00
  0.00000000E+00  0.00000000E+00  0.00000000E+00  0.00000000E+00  0.00000000E+00
  0.00000000E+00  0.00000000E+00  0.00000000E+00  0.00000000E+00  0.00000000E+00
  0.00000000E+00  0.00000000E+00  0.00000000E+00  0.00000000E+00  0.00000000E+00
  0.00000000E+00  0.00000000E+00  0.00000000E+00  0.00000000E+00  0.00000000E+00
  0.00000000E+00  0.00000000E+00  0.00000000E+00  0.00000000E+00  0.00000000E+00
  0.00000000E+00  0.00000000E+00  0.00000000E+00  0.00000000E+00  0.00000000E+00
  0.00000000E+00  0.00000000E+00  0.00000000E+00  0.00000000E+00  0.00000000E+00
  0.00000000E+00  0.00000000E+00  0.00000000E+00  0.00000000E+00  0.00000000E+00
  0.00000000E+00  0.00000000E+00  0.00000000E+00  0.00000000E+00  0.00000000E+00
  0.00000000E+00  0.00000000E+00  0.00000000E+00  0.00000000E+00  0.00000000E+00
  0.00000000E+00  0.00000000E+00  0.00000000E+00  0.00000000E+00  0.00000000E+00
  0.00000000E+00  0.00000000E+00  0.00000000E+00  0.00000000E+00  0.00000000E+00
  0.00000000E+00  0.00000000E+00  0.00000000E+00  0.00000000E+00  0.00000000E+00
  0.00000000E+00  0.00000000E+00  0.00000000E+00  0.00000000E+00  0.00000000E+00
  0.00000000E+00  0.00000000E+00  0.00000000E+00  0.00000000E+00  0.00000000E+00
  0.00000000E+00  0.00000000E+00  0.00000000E+00  0.00000000E+00  0.00000000E+00
  0.00000000E+00  0.00000000E+00  0.00000000E+00  0.00000000E+00  0.00000000E+00
  0.00000000E+00  0.00000000E+00  0.00000000E+00  0.00000000E+00  0.00000000E+00
  0.00000000E+00  0.00000000E+00  0.00000000E+00  0.00000000E+00  0.00000000E+00
  0.00000000E+00  0.00000000E+00  0.00000000E+00  0.00000000E+00  0.00000000E+00
  0.00000000E+00  0.00000000E+00  0.00000000E+00  0.00000000E+00  0.00000000E+00
  0.00000000E+00  0.00000000E+00  0.00000000E+00  0.00000000E+00  0.00000000E+00
  0.00000000E+00  0.00000000E+00  0.00000000E+00  0.00000000E+00  0.00000000E+00
  0.00000000E+00  0.00000000E+00  0.00000000E+00  0.00000000E+00  0.00000000E+00
  0.00000000E+00  0.00000000E+00  0.00000000E+00  0.00000000E+00  0.00000000E+00
  0.00000000E+00  0.00000000E+00  0.00000000E+00  0.00000000E+00  0.00000000E+00
  0.00000000E+00  0.00000000E+00  0.00000000E+00  0.00000000E+00  0.00000000E+00
  0.00000000E+00  0.00000000E+00  0.00000000E+00  0.00000000E+00  0.00000000E+00
  0.00000000E+00  0.00000000E+00  0.00000000E+00  0.00000000E+00  0.00000000E+00
  0.00000000E+00  0.00000000E+00  0.00000000E+00  0.00000000E+00  0.00000000E+00
  0.00000000E+00  0.00000000E+00  0.00000000E+00  0.00000000E+00  0.00000000E+00
  0.00000000E+00  0.00000000E+00
MO    3                     OCC NO =   1.00000000 ORB. ENERGY = -62.15468378
  1.50888971E+01  1.41273862E+01  1.31888338E+01  1.13190752E+01  1.01658515E+01
  9.42785461E+00  8.87011468E+00  8.72428606E+00  8.57345354E+00  7.76223959E+00
  7.09793510E+00  4.32982981E+00  9.72631621E-01  1.94912098E+00  4.91905628E+00
  8.89770011E+00  8.77782362E+00  5.78144751E-01 -8.73325761E+00 -8.48089105E+00
 -2.56269489E+00  4.64386744E+00  2.49740002E+00  1.84381535E-01 -1.15979110E-02
  2.62010330E-03 -9.91057378E-04  1.87303759E-04 -2.21191282E-05  3.50293553E-06
  0.00000000E+00  0.00000000E+00  0.00000000E+00  0.00000000E+00  0.00000000E+00
  0.00000000E+00  0.00000000E+00  0.00000000E+00  0.00000000E+00  0.00000000E+00
  0.00000000E+00  0.00000000E+00  0.00000000E+00  0.00000000E+00  0.00000000E+00
  0.00000000E+00  0.00000000E+00  0.00000000E+00  0.00000000E+00  0.00000000E+00
  0.00000000E+00  0.00000000E+00  0.00000000E+00  0.00000000E+00  0.00000000E+00
  0.00000000E+00  0.00000000E+00  0.00000000E+00  0.00000000E+00  0.00000000E+00
  0.00000000E+00  0.00000000E+00  0.00000000E+00  0.00000000E+00  0.00000000E+00
  0.00000000E+00  0.00000000E+00  0.00000000E+00  0.00000000E+00  0.00000000E+00
  0.00000000E+00  0.00000000E+00  0.00000000E+00  0.00000000E+00  0.00000000E+00
  0.00000000E+00  0.00000000E+00  0.00000000E+00  0.00000000E+00  0.00000000E+00
  0.00000000E+00  0.00000000E+00  0.00000000E+00  0.00000000E+00  0.00000000E+00
  0.00000000E+00  0.00000000E+00  0.00000000E+00  0.00000000E+00  0.00000000E+00
  0.00000000E+00  0.00000000E+00  0.00000000E+00  0.00000000E+00  0.00000000E+00
  0.00000000E+00  0.00000000E+00  0.00000000E+00  0.00000000E+00  0.00000000E+00
  0.00000000E+00  0.00000000E+00  0.00000000E+00  0.00000000E+00  0.00000000E+00
  0.00000000E+00  0.00000000E+00  0.00000000E+00  0.00000000E+00  0.00000000E+00
  0.00000000E+00  0.00000000E+00  0.00000000E+00  0.00000000E+00  0.00000000E+00
  0.00000000E+00  0.00000000E+00  0.00000000E+00  0.00000000E+00  0.00000000E+00
  0.00000000E+00  0.00000000E+00  0.00000000E+00  0.00000000E+00  0.00000000E+00
  0.00000000E+00  0.00000000E+00  0.00000000E+00  0.00000000E+00  0.00000000E+00
  0.00000000E+00  0.00000000E+00  0.00000000E+00  0.00000000E+00  0.00000000E+00
  0.00000000E+00  0.00000000E+00  0.00000000E+00  0.00000000E+00  0.00000000E+00
  0.00000000E+00  0.00000000E+00  0.00000000E+00  0.00000000E+00  0.00000000E+00
  0.00000000E+00  0.00000000E+00  0.00000000E+00  0.00000000E+00  0.00000000E+00
  0.00000000E+00  0.00000000E+00  0.00000000E+00  0.00000000E+00  0.00000000E+00
  0.00000000E+00  0.00000000E+00  0.00000000E+00  0.00000000E+00  0.00000000E+00
  0.00000000E+00  0.00000000E+00  0.00000000E+00  0.00000000E+00  0.00000000E+00
  0.00000000E+00  0.00000000E+00  0.00000000E+00  0.00000000E+00  0.00000000E+00
  0.00000000E+00  0.00000000E+00  0.00000000E+00  0.00000000E+00  0.00000000E+00
  0.00000000E+00  0.00000000E+00  0.00000000E+00  0.00000000E+00  0.00000000E+00
  0.00000000E+00  0.00000000E+00  0.00000000E+00  0.00000000E+00  0.00000000E+00
  0.00000000E+00  0.00000000E+00  0.00000000E+00  0.00000000E+00  0.00000000E+00
  0.00000000E+00  0.00000000E+00  0.00000000E+00  0.00000000E+00  0.00000000E+00
  0.00000000E+00  0.00000000E+00  0.00000000E+00  0.00000000E+00  0.00000000E+00
  0.00000000E+00  0.00000000E+00  0.00000000E+00  0.00000000E+00  0.00000000E+00
  0.00000000E+00  0.00000000E+00  0.00000000E+00  0.00000000E+00  0.00000000E+00
  0.00000000E+00  0.00000000E+00  0.00000000E+00  0.00000000E+00  0.00000000E+00
  0.00000000E+00  0.00000000E+00  0.00000000E+00  0.00000000E+00  0.00000000E+00
  0.00000000E+00  0.00000000E+00  0.00000000E+00  0.00000000E+00  0.00000000E+00
  0.00000000E+00  0.00000000E+00  0.00000000E+00  0.00000000E+00  0.00000000E+00
  0.00000000E+00  0.00000000E+00  0.00000000E+00  0.00000000E+00  0.00000000E+00
  0.00000000E+00  0.00000000E+00  0.00000000E+00  0.00000000E+00  0.00000000E+00
  0.00000000E+00  0.00000000E+00  0.00000000E+00  0.00000000E+00  0.00000000E+00
  0.00000000E+00  0.00000000E+00  0.00000000E+00  0.00000000E+00  0.00000000E+00
  0.00000000E+00  0.00000000E+00  0.00000000E+00  0.00000000E+00  0.00000000E+00
  0.00000000E+00  0.00000000E+00  0.00000000E+00  0.00000000E+00  0.00000000E+00
  0.00000000E+00  0.00000000E+00  0.00000000E+00  0.00000000E+00  0.00000000E+00
  0.00000000E+00  0.00000000E+00  0.00000000E+00  0.00000000E+00  0.00000000E+00
  0.00000000E+00  0.00000000E+00  0.00000000E+00  0.00000000E+00  0.00000000E+00
  0.00000000E+00  0.00000000E+00  0.00000000E+00  0.00000000E+00  0.00000000E+00
  0.00000000E+00  0.00000000E+00  0.00000000E+00  0.00000000E+00  0.00000000E+00
  0.00000000E+00  0.00000000E+00  0.00000000E+00  0.00000000E+00  0.00000000E+00
  0.00000000E+00  0.00000000E+00  0.00000000E+00  0.00000000E+00  0.00000000E+00