atomref-proatoms Tb_q0_mult6_nist x2c-QZVPall
GAUSSIAN             70 MOL ORBITALS    437 PRIMITIVES        1 NUCLEI
  Tb   1    (CENTRE  1)   0.00000000  0.00000000  0.00000000  CHARGE = 65.0
CENTRE ASSIGNMENTS    1  1  1  1  1  1  1  1  1  1  1  1  1  1  1  1  1  1  1  1
CENTRE ASSIGNMENTS    1  1  1  1  1  1  1  1  1  1  1  1  1  1  1  1  1  1  1  1
CENTRE ASSIGNMENTS    1  1  1  1  1  1  1  1  1  1  1  1  1  1  1  1  1  1  1  1
CENTRE ASSIGNMENTS    1  1  1  1  1  1  1  1  1  1  1  1  1  1  1  1  1  1  1  1
CENTRE ASSIGNMENTS    1  1  1  1  1  1  1  1  1  1  1  1  1  1  1  1  1  1  1  1
CENTRE ASSIGNMENTS    1  1  1  1  1  1  1  1  1  1  1  1  1  1  1  1  1  1  1  1
CENTRE ASSIGNMENTS    1  1  1  1  1  1  1  1  1  1  1  1  1  1  1  1  1  1  1  1
CENTRE ASSIGNMENTS    1  1  1  1  1  1  1  1  1  1  1  1  1  1  1  1  1  1  1  1
CENTRE ASSIGNMENTS    1  1  1  1  1  1  1  1  1  1  1  1  1  1  1  1  1  1  1  1
CENTRE ASSIGNMENTS    1  1  1  1  1  1  1  1  1  1  1  1  1  1  1  1  1  1  1  1
CENTRE ASSIGNMENTS    1  1  1  1  1  1  1  1  1  1  1  1  1  1  1  1  1  1  1  1
CENTRE ASSIGNMENTS    1  1  1  1  1  1  1  1  1  1  1  1  1  1  1  1  1  1  1  1
CENTRE ASSIGNMENTS    1  1  1  1  1  1  1  1  1  1  1  1  1  1  1  1  1  1  1  1
CENTRE ASSIGNMENTS    1  1  1  1  1  1  1  1  1  1  1  1  1  1  1  1  1  1  1  1
CENTRE ASSIGNMENTS    1  1  1  1  1  1  1  1  1  1  1  1  1  1  1  1  1  1  1  1
CENTRE ASSIGNMENTS    1  1  1  1  1  1  1  1  1  1  1  1  1  1  1  1  1  1  1  1
CENTRE ASSIGNMENTS    1  1  1  1  1  1  1  1  1  1  1  1  1  1  1  1  1  1  1  1
CENTRE ASSIGNMENTS    1  1  1  1  1  1  1  1  1  1  1  1  1  1  1  1  1  1  1  1
CENTRE ASSIGNMENTS    1  1  1  1  1  1  1  1  1  1  1  1  1  1  1  1  1  1  1  1
CENTRE ASSIGNMENTS    1  1  1  1  1  1  1  1  1  1  1  1  1  1  1  1  1  1  1  1
CENTRE ASSIGNMENTS    1  1  1  1  1  1  1  1  1  1  1  1  1  1  1  1  1  1  1  1
CENTRE ASSIGNMENTS    1  1  1  1  1  1  1  1  1  1  1  1  1  1  1  1  1
TYPE ASSIGNMENTS      1  1  1  1  1  1  1  1  1  1  1  1  1  1  1  1  1  1  1  1
TYPE ASSIGNMENTS      1  1  1  1  1  1  1  1  1  1  2  3  4  2  3  4  2  3  4  2
TYPE ASSIGNMENTS      3  4  2  3  4  2  3  4  2  3  4  2  3  4  2  3  4  2  3  4
TYPE ASSIGNMENTS      2  3  4  2  3  4  2  3  4  2  3  4  2  3  4  2  3  4  2  3
TYPE ASSIGNMENTS      4  2  3  4  2  3  4  2  3  4  2  3  4  2  3  4  2  3  4  2
TYPE ASSIGNMENTS      3  4  2  3  4  2  3  4  2  3  4  2  3  4  2  3  4  2  3  4
TYPE ASSIGNMENTS      2  3  4  2  3  4  2  3  4  2  3  4  5  8  9  6 10  7  5  8
TYPE ASSIGNMENTS      9  6 10  7  5  8  9  6 10  7  5  8  9  6 10  7  5  8  9  6
TYPE ASSIGNMENTS     10  7  5  8  9  6 10  7  5  8  9  6 10  7  5  8  9  6 10  7
TYPE ASSIGNMENTS      5  8  9  6 10  7  5  8  9  6 10  7  5  8  9  6 10  7  5  8
TYPE ASSIGNMENTS      9  6 10  7  5  8  9  6 10  7  5  8  9  6 10  7  5  8  9  6
TYPE ASSIGNMENTS     10  7  5  8  9  6 10  7  5  8  9  6 10  7  5  8  9  6 10  7
TYPE ASSIGNMENTS      5  8  9  6 10  7  5  8  9  6 10  7 11 14 15 17 20 18 12 16
TYPE ASSIGNMENTS     19 13 11 14 15 17 20 18 12 16 19 13 11 14 15 17 20 18 12 16
TYPE ASSIGNMENTS     19 13 11 14 15 17 20 18 12 16 19 13 11 14 15 17 20 18 12 16
TYPE ASSIGNMENTS     19 13 11 14 15 17 20 18 12 16 19 13 11 14 15 17 20 18 12 16
TYPE ASSIGNMENTS     19 13 11 14 15 17 20 18 12 16 19 13 11 14 15 17 20 18 12 16
TYPE ASSIGNMENTS     19 13 11 14 15 17 20 18 12 16 19 13 11 14 15 17 20 18 12 16
TYPE ASSIGNMENTS     19 13 21 24 25 30 33 31 26 34 35 28 22 27 32 29 23 21 24 25
TYPE ASSIGNMENTS     30 33 31 26 34 35 28 22 27 32 29 23 21 24 25 30 33 31 26 34
TYPE ASSIGNMENTS     35 28 22 27 32 29 23 21 24 25 30 33 31 26 34 35 28 22 27 32
TYPE ASSIGNMENTS     29 23 21 24 25 30 33 31 26 34 35 28 22 27 32 29 23
EXPONENTS  7.1574961E+07 1.9547661E+07 5.8866618E+06 1.8201728E+06 6.0876437E+05
EXPONENTS  2.1573391E+05 8.1194344E+04 3.2136031E+04 1.3632113E+04 6.0989694E+03
EXPONENTS  2.8219585E+03 1.1432190E+03 5.7569056E+04 1.3631670E+04 4.3316404E+03
EXPONENTS  1.5962253E+03 6.4066974E+02 4.0095881E+02 1.4592024E+02 7.6764855E+01
EXPONENTS  4.5200717E+01 2.0868579E+01 1.0958090E+01 5.2008664E+00 2.5934801E+00
EXPONENTS  1.1203322E+00 5.4052933E-01 2.3753673E-01 7.6626363E-02 2.9160778E-02
EXPONENTS  1.9330000E+02 1.9330000E+02 1.9330000E+02 4.2681359E+06 4.2681359E+06
EXPONENTS  4.2681359E+06 1.1906875E+06 1.1906875E+06 1.1906875E+06 3.5209774E+05
EXPONENTS  3.5209774E+05 3.5209774E+05 1.1036580E+05 1.1036580E+05 1.1036580E+05
EXPONENTS  3.6670066E+04 3.6670066E+04 3.6670066E+04 1.2915009E+04 1.2915009E+04
EXPONENTS  1.2915009E+04 4.8215160E+03 4.8215160E+03 4.8215160E+03 1.9079573E+03
EXPONENTS  1.9079573E+03 1.9079573E+03 7.8941565E+02 7.8941565E+02 7.8941565E+02
EXPONENTS  3.5186357E+02 3.5186357E+02 3.5186357E+02 1.6797653E+02 1.6797653E+02
EXPONENTS  1.6797653E+02 8.3771335E+01 8.3771335E+01 8.3771335E+01 4.1521400E+01
EXPONENTS  4.1521400E+01 4.1521400E+01 1.2827148E+03 1.2827148E+03 1.2827148E+03
EXPONENTS  4.4166759E+02 4.4166759E+02 4.4166759E+02 1.9411152E+02 1.9411152E+02
EXPONENTS  1.9411152E+02 4.8707566E+01 4.8707566E+01 4.8707566E+01 2.5273389E+01
EXPONENTS  2.5273389E+01 2.5273389E+01 1.3014179E+01 1.3014179E+01 1.3014179E+01
EXPONENTS  5.8098262E+00 5.8098262E+00 5.8098262E+00 7.4217396E+01 7.4217396E+01
EXPONENTS  7.4217396E+01 2.5756742E+01 2.5756742E+01 2.5756742E+01 7.7904024E+00
EXPONENTS  7.7904024E+00 7.7904024E+00 4.2262164E+00 4.2262164E+00 4.2262164E+00
EXPONENTS  2.0975446E+00 2.0975446E+00 2.0975446E+00 3.7804239E+00 3.7804239E+00
EXPONENTS  3.7804239E+00 1.2233546E+00 1.2233546E+00 1.2233546E+00 6.6499661E-01
EXPONENTS  6.6499661E-01 6.6499661E-01 7.6428088E-01 7.6428088E-01 7.6428088E-01
EXPONENTS  3.1535516E-01 3.1535516E-01 3.1535516E-01 1.3416832E-01 1.3416832E-01
EXPONENTS  1.3416832E-01 7.0243157E-02 7.0243157E-02 7.0243157E-02 2.1314098E-02
EXPONENTS  2.1314098E-02 2.1314098E-02 4.4875733E+03 4.4875733E+03 4.4875733E+03
EXPONENTS  4.4875733E+03 4.4875733E+03 4.4875733E+03 1.2775338E+03 1.2775338E+03
EXPONENTS  1.2775338E+03 1.2775338E+03 1.2775338E+03 1.2775338E+03 4.9358269E+02
EXPONENTS  4.9358269E+02 4.9358269E+02 4.9358269E+02 4.9358269E+02 4.9358269E+02
EXPONENTS  2.1793060E+02 2.1793060E+02 2.1793060E+02 2.1793060E+02 2.1793060E+02
EXPONENTS  2.1793060E+02 1.0489801E+02 1.0489801E+02 1.0489801E+02 1.0489801E+02
EXPONENTS  1.0489801E+02 1.0489801E+02 5.2478762E+01 5.2478762E+01 5.2478762E+01
EXPONENTS  5.2478762E+01 5.2478762E+01 5.2478762E+01 2.6390330E+01 2.6390330E+01
EXPONENTS  2.6390330E+01 2.6390330E+01 2.6390330E+01 2.6390330E+01 1.3326221E+01
EXPONENTS  1.3326221E+01 1.3326221E+01 1.3326221E+01 1.3326221E+01 1.3326221E+01
EXPONENTS  2.7000000E+01 2.7000000E+01 2.7000000E+01 2.7000000E+01 2.7000000E+01
EXPONENTS  2.7000000E+01 2.2608235E+02 2.2608235E+02 2.2608235E+02 2.2608235E+02
EXPONENTS  2.2608235E+02 2.2608235E+02 8.6980078E+01 8.6980078E+01 8.6980078E+01
EXPONENTS  8.6980078E+01 8.6980078E+01 8.6980078E+01 1.6385603E+01 1.6385603E+01
EXPONENTS  1.6385603E+01 1.6385603E+01 1.6385603E+01 1.6385603E+01 6.2192695E+00
EXPONENTS  6.2192695E+00 6.2192695E+00 6.2192695E+00 6.2192695E+00 6.2192695E+00
EXPONENTS  9.7111457E+00 9.7111457E+00 9.7111457E+00 9.7111457E+00 9.7111457E+00
EXPONENTS  9.7111457E+00 3.4930649E+00 3.4930649E+00 3.4930649E+00 3.4930649E+00
EXPONENTS  3.4930649E+00 3.4930649E+00 1.7789647E+00 1.7789647E+00 1.7789647E+00
EXPONENTS  1.7789647E+00 1.7789647E+00 1.7789647E+00 7.8690524E-01 7.8690524E-01
EXPONENTS  7.8690524E-01 7.8690524E-01 7.8690524E-01 7.8690524E-01 3.1896957E-01
EXPONENTS  3.1896957E-01 3.1896957E-01 3.1896957E-01 3.1896957E-01 3.1896957E-01
EXPONENTS  1.2321560E-01 1.2321560E-01 1.2321560E-01 1.2321560E-01 1.2321560E-01
EXPONENTS  1.2321560E-01 4.5125515E-02 4.5125515E-02 4.5125515E-02 4.5125515E-02
EXPONENTS  4.5125515E-02 4.5125515E-02 2.2282991E+02 2.2282991E+02 2.2282991E+02
EXPONENTS  2.2282991E+02 2.2282991E+02 2.2282991E+02 2.2282991E+02 2.2282991E+02
EXPONENTS  2.2282991E+02 2.2282991E+02 8.7611994E+01 8.7611994E+01 8.7611994E+01
EXPONENTS  8.7611994E+01 8.7611994E+01 8.7611994E+01 8.7611994E+01 8.7611994E+01
EXPONENTS  8.7611994E+01 8.7611994E+01 4.3729127E+01 4.3729127E+01 4.3729127E+01
EXPONENTS  4.3729127E+01 4.3729127E+01 4.3729127E+01 4.3729127E+01 4.3729127E+01
EXPONENTS  4.3729127E+01 4.3729127E+01 2.1961362E+01 2.1961362E+01 2.1961362E+01
EXPONENTS  2.1961362E+01 2.1961362E+01 2.1961362E+01 2.1961362E+01 2.1961362E+01
EXPONENTS  2.1961362E+01 2.1961362E+01 1.1028233E+01 1.1028233E+01 1.1028233E+01
EXPONENTS  1.1028233E+01 1.1028233E+01 1.1028233E+01 1.1028233E+01 1.1028233E+01
EXPONENTS  1.1028233E+01 1.1028233E+01 5.5708705E+00 5.5708705E+00 5.5708705E+00
EXPONENTS  5.5708705E+00 5.5708705E+00 5.5708705E+00 5.5708705E+00 5.5708705E+00
EXPONENTS  5.5708705E+00 5.5708705E+00 2.7857667E+00 2.7857667E+00 2.7857667E+00
EXPONENTS  2.7857667E+00 2.7857667E+00 2.7857667E+00 2.7857667E+00 2.7857667E+00
EXPONENTS  2.7857667E+00 2.7857667E+00 1.3392769E+00 1.3392769E+00 1.3392769E+00
EXPONENTS  1.3392769E+00 1.3392769E+00 1.3392769E+00 1.3392769E+00 1.3392769E+00
EXPONENTS  1.3392769E+00 1.3392769E+00 6.0759421E-01 6.0759421E-01 6.0759421E-01
EXPONENTS  6.0759421E-01 6.0759421E-01 6.0759421E-01 6.0759421E-01 6.0759421E-01
EXPONENTS  6.0759421E-01 6.0759421E-01 2.4788062E-01 2.4788062E-01 2.4788062E-01
EXPONENTS  2.4788062E-01 2.4788062E-01 2.4788062E-01 2.4788062E-01 2.4788062E-01
EXPONENTS  2.4788062E-01 2.4788062E-01 8.2000000E-02 8.2000000E-02 8.2000000E-02
EXPONENTS  8.2000000E-02 8.2000000E-02 8.2000000E-02 8.2000000E-02 8.2000000E-02
EXPONENTS  8.2000000E-02 8.2000000E-02 2.1002100E+01 2.1002100E+01 2.1002100E+01
EXPONENTS  2.1002100E+01 2.1002100E+01 2.1002100E+01 2.1002100E+01 2.1002100E+01
EXPONENTS  2.1002100E+01 2.1002100E+01 2.1002100E+01 2.1002100E+01 2.1002100E+01
EXPONENTS  2.1002100E+01 2.1002100E+01 9.5773000E+00 9.5773000E+00 9.5773000E+00
EXPONENTS  9.5773000E+00 9.5773000E+00 9.5773000E+00 9.5773000E+00 9.5773000E+00
EXPONENTS  9.5773000E+00 9.5773000E+00 9.5773000E+00 9.5773000E+00 9.5773000E+00
EXPONENTS  9.5773000E+00 9.5773000E+00 4.3716000E+00 4.3716000E+00 4.3716000E+00
EXPONENTS  4.3716000E+00 4.3716000E+00 4.3716000E+00 4.3716000E+00 4.3716000E+00
EXPONENTS  4.3716000E+00 4.3716000E+00 4.3716000E+00 4.3716000E+00 4.3716000E+00
EXPONENTS  4.3716000E+00 4.3716000E+00 1.9343000E+00 1.9343000E+00 1.9343000E+00
EXPONENTS  1.9343000E+00 1.9343000E+00 1.9343000E+00 1.9343000E+00 1.9343000E+00
EXPONENTS  1.9343000E+00 1.9343000E+00 1.9343000E+00 1.9343000E+00 1.9343000E+00
EXPONENTS  1.9343000E+00 1.9343000E+00 4.7763000E-01 4.7763000E-01 4.7763000E-01
EXPONENTS  4.7763000E-01 4.7763000E-01 4.7763000E-01 4.7763000E-01 4.7763000E-01
EXPONENTS  4.7763000E-01 4.7763000E-01 4.7763000E-01 4.7763000E-01 4.7763000E-01
EXPONENTS  4.7763000E-01 4.7763000E-01
MO    1                     OCC NO =   1.00000000 ORB. ENERGY = -1905.86367169
  1.05800893E+02  1.02664338E+02  9.39777039E+01  8.11758340E+01  7.14416565E+01
  6.54550233E+01  6.10185374E+01  5.91886378E+01  5.80225688E+01  5.21761677E+01
  4.78686377E+01  3.08852459E+01  2.89154007E+00  6.31897693E+00  1.46966474E+01
  2.55280306E+01  1.71287115E+01  9.92433910E+00  1.32753153E+00 -5.23080514E-01
  2.29643887E-01 -6.59542221E-02  2.65001937E-02 -8.57970273E-03  2.87687719E-03
 -7.99915928E-04  2.56931033E-04 -5.27892273E-05  7.01250142E-06 -1.05268705E-06
  0.00000000E+00  0.00000000E+00  0.00000000E+00  0.00000000E+00  0.00000000E+00
  0.00000000E+00  0.00000000E+00  0.00000000E+00  0.00000000E+00  0.00000000E+00
  0.00000000E+00  0.00000000E+00  0.00000000E+00  0.00000000E+00  0.00000000E+00
  0.00000000E+00  0.00000000E+00  0.00000000E+00  0.00000000E+00  0.00000000E+00
  0.00000000E+00  0.00000000E+00  0.00000000E+00  0.00000000E+00  0.00000000E+00
  0.00000000E+00  0.00000000E+00  0.00000000E+00  0.00000000E+00  0.00000000E+00
  0.00000000E+00  0.00000000E+00  0.00000000E+00  0.00000000E+00  0.00000000E+00
  0.00000000E+00  0.00000000E+00  0.00000000E+00  0.00000000E+00  0.00000000E+00
  0.00000000E+00  0.00000000E+00  0.00000000E+00  0.00000000E+00  0.00000000E+00
  0.00000000E+00  0.00000000E+00  0.00000000E+00  0.00000000E+00  0.00000000E+00
  0.00000000E+00  0.00000000E+00  0.00000000E+00  0.00000000E+00  0.00000000E+00
  0.00000000E+00  0.00000000E+00  0.00000000E+00  0.00000000E+00  0.00000000E+00
  0.00000000E+00  0.00000000E+00  0.00000000E+00  0.00000000E+00  0.00000000E+00
  0.00000000E+00  0.00000000E+00  0.00000000E+00  0.00000000E+00  0.00000000E+00
  0.00000000E+00  0.00000000E+00  0.00000000E+00  0.00000000E+00  0.00000000E+00
  0.00000000E+00  0.00000000E+00  0.00000000E+00  0.00000000E+00  0.00000000E+00
  0.00000000E+00  0.00000000E+00  0.00000000E+00  0.00000000E+00  0.00000000E+00
  0.00000000E+00  0.00000000E+00  0.00000000E+00  0.00000000E+00  0.00000000E+00
  0.00000000E+00  0.00000000E+00  0.00000000E+00  0.00000000E+00  0.00000000E+00
  0.00000000E+00  0.00000000E+00  0.00000000E+00  0.00000000E+00  0.00000000E+00
  0.00000000E+00  0.00000000E+00  0.00000000E+00  0.00000000E+00  0.00000000E+00
  0.00000000E+00  0.00000000E+00  0.00000000E+00  0.00000000E+00  0.00000000E+00
  0.00000000E+00  0.00000000E+00  0.00000000E+00  0.00000000E+00  0.00000000E+00
  0.00000000E+00  0.00000000E+00  0.00000000E+00  0.00000000E+00  0.00000000E+00
  0.00000000E+00  0.00000000E+00  0.00000000E+00  0.00000000E+00  0.00000000E+00
  0.00000000E+00  0.00000000E+00  0.00000000E+00  0.00000000E+00  0.00000000E+00
  0.00000000E+00  0.00000000E+00  0.00000000E+00  0.00000000E+00  0.00000000E+00
  0.00000000E+00  0.00000000E+00  0.00000000E+00  0.00000000E+00  0.00000000E+00
  0.00000000E+00  0.00000000E+00  0.00000000E+00  0.00000000E+00  0.00000000E+00
  0.00000000E+00  0.00000000E+00  0.00000000E+00  0.00000000E+00  0.00000000E+00
  0.00000000E+00  0.00000000E+00  0.00000000E+00  0.00000000E+00  0.00000000E+00
  0.00000000E+00  0.00000000E+00  0.00000000E+00  0.00000000E+00  0.00000000E+00
  0.00000000E+00  0.00000000E+00  0.00000000E+00  0.00000000E+00  0.00000000E+00
  0.00000000E+00  0.00000000E+00  0.00000000E+00  0.00000000E+00  0.00000000E+00
  0.00000000E+00  0.00000000E+00  0.00000000E+00  0.00000000E+00  0.00000000E+00
  0.00000000E+00  0.00000000E+00  0.00000000E+00  0.00000000E+00  0.00000000E+00
  0.00000000E+00  0.00000000E+00  0.00000000E+00  0.00000000E+00  0.00000000E+00
  0.00000000E+00  0.00000000E+00  0.00000000E+00  0.00000000E+00  0.00000000E+00
  0.00000000E+00  0.00000000E+00  0.00000000E+00  0.00000000E+00  0.00000000E+00
  0.00000000E+00  0.00000000E+00  0.00000000E+00  0.00000000E+00  0.00000000E+00
  0.00000000E+00  0.00000000E+00  0.00000000E+00  0.00000000E+00  0.00000000E+00
  0.00000000E+00  0.00000000E+00  0.00000000E+00  0.00000000E+00  0.00000000E+00
  0.00000000E+00  0.00000000E+00  0.00000000E+00  0.00000000E+00  0.00000000E+00
  0.00000000E+00  0.00000000E+00  0.00000000E+00  0.00000000E+00  0.00000000E+00
  0.00000000E+00  0.00000000E+00  0.00000000E+00  0.00000000E+00  0.00000000E+00
  0.00000000E+00  0.00000000E+00  0.00000000E+00  0.00000000E+00  0.00000000E+00
  0.00000000E+00  0.00000000E+00  0.00000000E+00  0.00000000E+00  0.00000000E+00
  0.00000000E+00  0.00000000E+00  0.00000000E+00  0.00000000E+00  0.00000000E+00
  0.00000000E+00  0.00000000E+00  0.00000000E+00  0.00000000E+00  0.00000000E+00
  0.00000000E+00  0.00000000E+00  0.00000000E+00  0.00000000E+00  0.00000000E+00
  0.00000000E+00  0.00000000E+00  0.00000000E+00  0.00000000E+00  0.00000000E+00
  0.00000000E+00  0.00000000E+00  0.00000000E+00  0.00000000E+00  0.00000000E+00
  0.00000000E+00  0.00000000E+00  0.00000000E+00  0.00000000E+00  0.00000000E+00
  0.00000000E+00  0.00000000E+00  0.00000000E+00  0.00000000E+00  0.00000000E+00
  0.00000000E+00  0.00000000E+00  0.00000000E+00  0.00000000E+00  0.00000000E+00
  0.00000000E+00  0.00000000E+00  0.00000000E+00  0.00000000E+00  0.00000000E+00
  0.00000000E+00  0.00000000E+00  0.00000000E+00  0.00000000E+00  0.00000000E+00
  0.00000000E+00  0.00000000E+00  0.00000000E+00  0.00000000E+00  0.00000000E+00
  0.00000000E+00  0.00000000E+00  0.00000000E+00  0.00000000E+00  0.00000000E+00
  0.00000000E+00  0.00000000E+00  0.00000000E+00  0.00000000E+00  0.00000000E+00
  0.00000000E+00  0.00000000E+00  0.00000000E+00  0.00000000E+00  0.00000000E+00
  0.00000000E+00  0.00000000E+00  0.00000000E+00  0.00000000E+00  0.00000000E+00
  0.00000000E+00  0.00000000E+00  0.00000000E+00  0.00000000E+00  0.00000000E+00
  0.00000000E+00  0.00000000E+00  0.00000000E+00  0.00000000E+00  0.00000000E+00
  0.00000000E+00  0.00000000E+00  0.00000000E+00  0.00000000E+00  0.00000000E+00
  0.00000000E+00  0.00000000E+00  0.00000000E+00  0.00000000E+00  0.00000000E+00
  0.00000000E+00  0.00000000E+00  0.00000000E+00  0.00000000E+00  0.00000000E+00
  0.00000000E+00  0.00000000E+00  0.00000000E+00  0.00000000E+00  0.00000000E+00
  0.00000000E+00  0.00000000E+00  0.00000000E+00  0.00000000E+00  0.00000000E+00
  0.00000000E+00  0.00000000E+00  0.00000000E+00  0.00000000E+00  0.00000000E+00
  0.00000000E+00  0.00000000E+00  0.00000000E+00  0.00000000E+00  0.00000000E+00
  0.00000000E+00  0.00000000E+00  0.00000000E+00  0.00000000E+00  0.00000000E+00
  0.00000000E+00  0.00000000E+00  0.00000000E+00  0.00000000E+00  0.00000000E+00
  0.00000000E+00  0.00000000E+00  0.00000000E+00  0.00000000E+00  0.00000000E+00
  0.00000000E+00  0.00000000E+00  0.00000000E+00  0.00000000E+00  0.00000000E+00
  0.00000000E+00  0.00000000E+00  0.00000000E+00  0.00000000E+00  0.00000000E+00
  0.00000000E+00  0.00000000E+00  0.00000000E+00  0.00000000E+00  0.00000000E+00
  0.00000000E+00  0.00000000E+00  0.00000000E+00  0.00000000E+00  0.00000000E+00
  0.00000000E+00  0.00000000E+00  0.00000000E+00  0.00000000E+00  0.00000000E+00
  0.00000000E+00  0.00000000E+00  0.00000000E+00  0.00000000E+00  0.00000000E+00
  0.00000000E+00  0.00000000E+00  0.00000000E+00  0.00000000E+00  0.00000000E+00
  0.00000000E+00  0.00000000E+00
MO    2                     OCC NO =   1.00000000 ORB. ENERGY = -317.07371412
 -3.92938628E+01 -3.81289636E+01 -3.49027962E+01 -3.01482530E+01 -2.65330336E+01
 -2.43096313E+01 -2.26619452E+01 -2.19823307E+01 -2.15492591E+01 -1.93779383E+01
 -1.77781456E+01 -1.14706084E+01 -1.99885972E+00 -4.36817340E+00 -1.01594775E+01
 -1.76469807E+01 -1.61256291E+01 -3.96959778E-01  1.32040451E+01  8.49228523E+00
  2.60681147E+00  1.97533861E-01 -2.77700177E-02  6.64167948E-03 -2.04153690E-03
  5.34593663E-04 -1.67783235E-04  3.43208920E-05 -4.53734804E-06  6.80533516E-07
  0.00000000E+00  0.00000000E+00  0.00000000E+00  0.00000000E+00  0.00000000E+00
  0.00000000E+00  0.00000000E+00  0.00000000E+00  0.00000000E+00  0.00000000E+00
  0.00000000E+00  0.00000000E+00  0.00000000E+00  0.00000000E+00  0.00000000E+00
  0.00000000E+00  0.00000000E+00  0.00000000E+00  0.00000000E+00  0.00000000E+00
  0.00000000E+00  0.00000000E+00  0.00000000E+00  0.00000000E+00  0.00000000E+00
  0.00000000E+00  0.00000000E+00  0.00000000E+00  0.00000000E+00  0.00000000E+00
  0.00000000E+00  0.00000000E+00  0.00000000E+00  0.00000000E+00  0.00000000E+00
  0.00000000E+00  0.00000000E+00  0.00000000E+00  0.00000000E+00  0.00000000E+00
  0.00000000E+00  0.00000000E+00  0.00000000E+00  0.00000000E+00  0.00000000E+00
  0.00000000E+00  0.00000000E+00  0.00000000E+00  0.00000000E+00  0.00000000E+00
  0.00000000E+00  0.00000000E+00  0.00000000E+00  0.00000000E+00  0.00000000E+00
  0.00000000E+00  0.00000000E+00  0.00000000E+00  0.00000000E+00  0.00000000E+00
  0.00000000E+00  0.00000000E+00  0.00000000E+00  0.00000000E+00  0.00000000E+00
  0.00000000E+00  0.00000000E+00  0.00000000E+00  0.00000000E+00  0.00000000E+00
  0.00000000E+00  0.00000000E+00  0.00000000E+00  0.00000000E+00  0.00000000E+00
  0.00000000E+00  0.00000000E+00  0.00000000E+00  0.00000000E+00  0.00000000E+00
  0.00000000E+00  0.00000000E+00  0.00000000E+00  0.00000000E+00  0.00000000E+00
  0.00000000E+00  0.00000000E+00  0.00000000E+00  0.00000000E+00  0.00000000E+00
  0.00000000E+00  0.00000000E+00  0.00000000E+00  0.00000000E+00  0.00000000E+00
  0.00000000E+00  0.00000000E+00  0.00000000E+00  0.00000000E+00  0.00000000E+00
  0.00000000E+00  0.00000000E+00  0.00000000E+00  0.00000000E+00  0.00000000E+00
  0.00000000E+00  0.00000000E+00  0.00000000E+00  0.00000000E+00  0.00000000E+00
  0.00000000E+00  0.00000000E+00  0.00000000E+00  0.00000000E+00  0.00000000E+00
  0.00000000E+00  0.00000000E+00  0.00000000E+00  0.00000000E+00  0.00000000E+00
  0.00000000E+00  0.00000000E+00  0.00000000E+00  0.00000000E+00  0.00000000E+00
  0.00000000E+00  0.00000000E+00  0.00000000E+00  0.00000000E+00  0.00000000E+00
  0.00000000E+00  0.00000000E+00  0.00000000E+00  0.00000000E+00  0.00000000E+00
  0.00000000E+00  0.00000000E+00  0.00000000E+00  0.00000000E+00  0.00000000E+00
  0.00000000E+00  0.00000000E+00  0.00000000E+00  0.00000000E+00  0.00000000E+00
  0.00000000E+00  0.00000000E+00  0.00000000E+00  0.00000000E+00  0.00000000E+00
  0.00000000E+00  0.00000000E+00  0.00000000E+00  0.00000000E+00  0.00000000E+00
  0.00000000E+00  0.00000000E+00  0.00000000E+00  0.00000000E+00  0.00000000E+00
  0.00000000E+00  0.00000000E+00  0.00000000E+00  0.00000000E+00  0.00000000E+00
  0.00000000E+00  0.00000000E+00  0.00000000E+00  0.00000000E+00  0.00000000E+00
  0.00000000E+00  0.00000000E+00  0.00000000E+00  0.00000000E+00  0.00000000E+00
  0.00000000E+00  0.00000000E+00  0.00000000E+00  0.00000000E+00  0.00000000E+00
  0.00000000E+00  0.00000000E+00  0.00000000E+00  0.00000000E+00  0.00000000E+00
  0.00000000E+00  0.00000000E+00  0.00000000E+00  0.00000000E+00  0.00000000E+00
  0.00000000E+00  0.00000000E+00  0.00000000E+00  0.00000000E+00  0.00000000E+00
  0.00000000E+00  0.00000000E+00  0.00000000E+00  0.00000000E+00  0.00000000E+00
  0.00000000E+00  0.00000000E+00  0.00000000E+00  0.00000000E+00  0.00000000E+00
  0.00000000E+00  0.00000000E+00  0.00000000E+00  0.00000000E+00  0.00000000E+00
  0.00000000E+00  0.00000000E+00  0.00000000E+00  0.00000000E+00  0.00000000E+00
  0.00000000E+00  0.00000000E+00  0.00000000E+00  0.00000000E+00  0.00000000E+00
  0.00000000E+00  0.00000000E+00  0.00000000E+00  0.00000000E+00  0.00000000E+00
  0.00000000E+00  0.00000000E+00  0.00000000E+00  0.00000000E+00  0.00000000E+00
  0.00000000E+00  0.00000000E+00  0.00000000E+00  0.00000000E+00  0.00000000E+00
  0.00000000E+00  0.00000000E+00  0.00000000E+00  0.00000000E+00  0.00000000E+00
  0.00000000E+00  0.00000000E+00  0.00000000E+00  0.00000000E+00  0.00000000E+00
  0.00000000E+00  0.00000000E+00  0.00000000E+00  0.00000000E+00  0.00000000E+00
  0.00000000E+00  0.00000000E+00  0.00000000E+00  0.00000000E+00  0.00000000E+00
  0.00000000E+00  0.00000000E+00  0.00000000E+00  0.00000000E+00  0.00000000E+00
  0.00000000E+00  0.00000000E+00  0.00000000E+00  0.00000000E+00  0.00000000E+00
  0.00000000E+00  0.00000000E+00  0.00000000E+00  0.00000000E+00  0.00000000E+00
  0.00000000E+00  0.00000000E+00  0.00000000E+00  0.00000000E+00  0.00000000E+00
  0.00000000E+00  0.00000000E+00  0.00000000E+00  0.00000000E+00  0.00000000E+00
  0.00000000E+00  0.00000000E+00  0.00000000E+00  0.00000000E+00  0.00000000E+00
  0.00000000E+00  0.00000000E+00  0.00000000E+00  0.00000000E+00  0.00000000E+00
  0.00000000E+00  0.00000000E+00  0.00000000E+00  0.00000000E+00  0.00000000E+00
  0.00000000E+00  0.00000000E+00  0.00000000E+00  0.00000000E+00  0.00000000E+00
  0.00000000E+00  0.00000000E+00  0.00000000E+00  0.00000000E+00  0.00000000E+00
  0.00000000E+00  0.00000000E+00  0.00000000E+00  0.00000000E+00  0.00000000E+00
  0.00000000E+00  0.00000000E+00  0.00000000E+00  0.00000000E+00  0.00000000E+00
  0.00000000E+00  0.00000000E+00  0.00000000E+00  0.00000000E+00  0.00000000E+00
  0.00000000E+00  0.00000000E+00  0.00000000E+00  0.00000000E+00  0.00000000E+00
  0.00000000E+00  0.00000000E+00  0.00000000E+00  0.00000000E+00  0.00000000E+00
  0.00000000E+00  0.00000000E+00  0.00000000E+00  0.00000000E+00  0.00000000E+00
  0.00000000E+00  0.00000000E+00  0.00000000E+00  0.00000000E+00  0.00000000E+00
  0.00000000E+00  0.00000000E+00  0.00000000E+00  0.00000000E+00  0.00000000E+00
  0.00000000E+00  0.00000000E+00  0.00000000E+00  0.00000000E+00  0.00000000E+00
  0.00000000E+00  0.00000000E+00  0.00000000E+00  0.00000000E+00  0.00000000E+00
  0.00000000E+00  0.00000000E+00  0.00000000E+00  0.00000000E+00  0.00000000E+00
  0.00000000E+00  0.00000000E+00  0.00000000E+00  0.00000000E+00  0.00000000E+00
  0.00000000E+00  0.00000000E+00  0.00000000E+00  0.00000000E+00  0.00000000E+00
  0.00000000E+00  0.00000000E+00  0.00000000E+00  0.00000000E+00  0.00000000E+00
  0.00000000E+00  0.00000000E+00  0.00000000E+00  0.00000000E+00  0.00000000E+00
  0.00000000E+00  0.00000000E+00  0.00000000E+00  0.00000000E+00  0.00000000E+00
  0.00000000E+00  0.00000000E+00  0.00000000E+00  0.00000000E+00  0.00000000E+00
  0.00000000E+00  0.00000000E+00  0.00000000E+00  0.00000000E+00  0.00000000E+00
  0.00000000E+00  0.00000000E+00  0.00000000E+00  0.00000000E+00  0.00000000E+00
  0.00000000E+00  0.00000000E+00  0.00000000E+00  0.00000000E+00  0.00000000E+00
  0.00000000E+00  0.00000000E+00
MO    3                     OCC NO =   1.00000000 ORB. ENERGY = -70.88267931
  1.82917084E+01  1.77494355E+01  1.62476205E+01  1.40343303E+01  1.23514075E+01
  1.13163903E+01  1.05493750E+01  1.02330072E+01  1.00314078E+01  9.02063504E+00
  8.27591465E+00  5.33968943E+00  1.01192479E+00  2.21139227E+00  5.14324594E+00
  8.93380215E+00  8.82677687E+00 -5.60418585E-01 -1.03875966E+01 -9.78758992E+00
 -1.01810287E+00  5.42367059E+00  2.17757821E+00  1.20791326E-01 -6.74776220E-03
  1.62645421E-03 -5.03760863E-04  1.00068683E-04 -1.33730963E-05  2.00977389E-06
  0.00000000E+00  0.00000000E+00  0.00000000E+00  0.00000000E+00  0.00000000E+00
  0.00000000E+00  0.00000000E+00  0.00000000E+00  0.00000000E+00  0.00000000E+00
  0.00000000E+00  0.00000000E+00  0.00000000E+00  0.00000000E+00  0.00000000E+00
  0.00000000E+00  0.00000000E+00  0.00000000E+00  0.00000000E+00  0.00000000E+00
  0.00000000E+00  0.00000000E+00  0.00000000E+00  0.00000000E+00  0.00000000E+00
  0.00000000E+00  0.00000000E+00  0.00000000E+00  0.00000000E+00  0.00000000E+00
  0.00000000E+00  0.00000000E+00  0.00000000E+00  0.00000000E+00  0.00000000E+00
  0.00000000E+00  0.00000000E+00  0.00000000E+00  0.00000000E+00  0.00000000E+00
  0.00000000E+00  0.00000000E+00  0.00000000E+00  0.00000000E+00  0.00000000E+00
  0.00000000E+00  0.00000000E+00  0.00000000E+00  0.00000000E+00  0.00000000E+00
  0.00000000E+00  0.00000000E+00  0.00000000E+00  0.00000000E+00  0.00000000E+00
  0.00000000E+00  0.00000000E+00  0.00000000E+00  0.00000000E+00  0.00000000E+00
  0.00000000E+00  0.00000000E+00  0.00000000E+00  0.00000000E+00  0.00000000E+00
  0.00000000E+00  0.00000000E+00  0.00000000E+00  0.00000000E+00  0.00000000E+00
  0.00000000E+00  0.00000000E+00  0.00000000E+00  0.00000000E+00  0.00000000E+00
  0.00000000E+00  0.00000000E+00  0.00000000E+00  0.00000000E+00  0.00000000E+00
  0.00000000E+00  0.00000000E+00  0.00000000E+00  0.00000000E+00  0.00000000E+00
  0.00000000E+00  0.00000000E+00  0.00000000E+00  0.00000000E+00  0.00000000E+00
  0.00000000E+00  0.00000000E+00  0.00000000E+00  0.00000000E+00  0.00000000E+00
  0.00000000E+00  0.00000000E+00  0.00000000E+00  0.00000000E+00  0.00000000E+00
  0.00000000E+00  0.00000000E+00  0.00000000E+00  0.00000000E+00  0.00000000E+00
  0.00000000E+00  0.00000000E+00  0.00000000E+00  0.00000000E+00  0.00000000E+00
  0.00000000E+00  0.00000000E+00  0.00000000E+00  0.00000000E+00  0.00000000E+00
  0.00000000E+00  0.00000000E+00  0.00000000E+00  0.00000000E+00  0.00000000E+00
  0.00000000E+00  0.00000000E+00  0.00000000E+00  0.00000000E+00  0.00000000E+00
  0.00000000E+00  0.00000000E+00  0.00000000E+00  0.00000000E+00  0.00000000E+00
  0.00000000E+00  0.00000000E+00  0.00000000E+00  0.00000000E+00  0.00000000E+00
  0.00000000E+00  0.00000000E+00  0.00000000E+00  0.00000000E+00  0.00000000E+00
  0.00000000E+00  0.00000000E+00  0.00000000E+00  0.00000000E+00  0.00000000E+00
  0.00000000E+00  0.00000000E+00  0.00000000E+00  0.00000000E+00  0.00000000E+00
  0.00000000E+00  0.00000000E+00  0.00000000E+00  0.00000000E+00  0.00000000E+00
  0.00000000E+00  0.00000000E+00  0.00000000E+00  0.00000000E+00  0.00000000E+00
  0.00000000E+00  0.00000000E+00  0.00000000E+00  0.00000000E+00  0.00000000E+00
  0.00000000E+00  0.00000000E+00  0.00000000E+00  0.00000000E+00  0.00000000E+00
  0.00000000E+00  0.00000000E+00  0.00000000E+00  0.00000000E+00  0.00000000E+00
  0.00000000E+00  0.00000000E+00  0.00000000E+00  0.00000000E+00  0.00000000E+00
  0.00000000E+00  0.00000000E+00  0.00000000E+00  0.00000000E+00  0.00000000E+00
  0.00000000E+00  0.00000000E+00  0.00000000E+00  0.00000000E+00  0.00000000E+00
  0.00000000E+00  0.00000000E+00  0.00000000E+00  0.00000000E+00  0.00000000E+00
  0.00000000E+00  0.00000000E+00  0.00000000E+00  0.00000000E+00  0.00000000E+00
  0.00000000E+00  0.00000000E+00  0.00000000E+00  0.00000000E+00  0.00000000E+00
  0.00000000E+00  0.00000000E+00  0.00000000E+00  0.00000000E+00  0.00000000E+00
  0.00000000E+00  0.00000000E+00  0.00000000E+00  0.00000000E+00  0.00000000E+00
  0.00000000E+00  0.00000000E+00  0.00000000E+00  0.00000000E+00  0.00000000E+00
  0.00000000E+00  0.00000000E+00  0.00000000E+00  0.00000000E+00  0.00000000E+00
  0.00000000E+00  0.00000000E+00  0.00000000E+00  0.00000000E+00  0.00000000E+00
  0.00000000E+00  0.00000000E+00  0.00000000E+00  0.00000000E+00  0.00000000E+00
  0.00000000E+00  0.00000000E+00  0.00000000E+00  0.00000000E+00  0.00000000E+00
  0.00000000E+00  0.00000000E+00  0.00000000E+00  0.00000000E+00  0.00000000E+00
  0.00000000E+00  0.00000000E+00  0.00000000E+00  0.00000000E+00  0.00000000E+00
  0.00000000E+00  0.00000000E+00  0.00000000E+00  0.00000000E+00  0.00000000E+00
  0.00000000E+00  0.00000000E+00  0.00000000E+00  0.00000000E+00  0.00000000E+00
  0.00000000E+00  0.00000000E+00  0.00000000E+00  0.00000000E+00  0.00000000E+00