atomref-proatoms Ti_q0_mult3_nist x2c-QZVPall
GAUSSIAN             25 MOL ORBITALS    183 PRIMITIVES        1 NUCLEI
  Ti   1    (CENTRE  1)   0.00000000  0.00000000  0.00000000  CHARGE = 22.0
CENTRE ASSIGNMENTS    1  1  1  1  1  1  1  1  1  1  1  1  1  1  1  1  1  1  1  1
CENTRE ASSIGNMENTS    1  1  1  1  1  1  1  1  1  1  1  1  1  1  1  1  1  1  1  1
CENTRE ASSIGNMENTS    1  1  1  1  1  1  1  1  1  1  1  1  1  1  1  1  1  1  1  1
CENTRE ASSIGNMENTS    1  1  1  1  1  1  1  1  1  1  1  1  1  1  1  1  1  1  1  1
CENTRE ASSIGNMENTS    1  1  1  1  1  1  1  1  1  1  1  1  1  1  1  1  1  1  1  1
CENTRE ASSIGNMENTS    1  1  1  1  1  1  1  1  1  1  1  1  1  1  1  1  1  1  1  1
CENTRE ASSIGNMENTS    1  1  1  1  1  1  1  1  1  1  1  1  1  1  1  1  1  1  1  1
CENTRE ASSIGNMENTS    1  1  1  1  1  1  1  1  1  1  1  1  1  1  1  1  1  1  1  1
CENTRE ASSIGNMENTS    1  1  1  1  1  1  1  1  1  1  1  1  1  1  1  1  1  1  1  1
CENTRE ASSIGNMENTS    1  1  1
TYPE ASSIGNMENTS      1  1  1  1  1  1  1  1  1  1  1  1  1  1  1  1  1  1  1  1
TYPE ASSIGNMENTS      1  1  1  1  2  3  4  2  3  4  2  3  4  2  3  4  2  3  4  2
TYPE ASSIGNMENTS      3  4  2  3  4  2  3  4  2  3  4  2  3  4  2  3  4  2  3  4
TYPE ASSIGNMENTS      2  3  4  2  3  4  2  3  4  2  3  4  2  3  4  2  3  4  2  3
TYPE ASSIGNMENTS      4  2  3  4  5  8  9  6 10  7  5  8  9  6 10  7  5  8  9  6
TYPE ASSIGNMENTS     10  7  5  8  9  6 10  7  5  8  9  6 10  7  5  8  9  6 10  7
TYPE ASSIGNMENTS      5  8  9  6 10  7  5  8  9  6 10  7  5  8  9  6 10  7 11 14
TYPE ASSIGNMENTS     15 17 20 18 12 16 19 13 11 14 15 17 20 18 12 16 19 13 11 14
TYPE ASSIGNMENTS     15 17 20 18 12 16 19 13 21 24 25 30 33 31 26 34 35 28 22 27
TYPE ASSIGNMENTS     32 29 23
EXPONENTS  3.6865420E+06 4.9160663E+05 1.0729095E+05 2.9985102E+04 9.7376046E+03
EXPONENTS  3.5081525E+03 1.3660568E+03 5.6498029E+02 2.4515395E+02 1.1066384E+02
EXPONENTS  5.1187518E+01 9.7256362E+02 2.9798901E+02 1.1436661E+02 4.9272906E+01
EXPONENTS  2.3281939E+01 1.0576367E+01 4.9948990E+00 2.1422438E+00 1.0342989E+00
EXPONENTS  4.6354513E-01 1.0612234E-01 5.4808671E-02 2.6181163E-02 1.7494271E+04
EXPONENTS  1.7494271E+04 1.7494271E+04 4.3766050E+03 4.3766050E+03 4.3766050E+03
EXPONENTS  1.2471037E+03 1.2471037E+03 1.2471037E+03 4.0475433E+02 4.0475433E+02
EXPONENTS  4.0475433E+02 1.4962500E+02 1.4962500E+02 1.4962500E+02 6.3712226E+01
EXPONENTS  6.3712226E+01 6.3712226E+01 2.8501968E+01 2.8501968E+01 2.8501968E+01
EXPONENTS  1.3237233E+01 1.3237233E+01 1.3237233E+01 6.3137373E+00 6.3137373E+00
EXPONENTS  6.3137373E+00 2.9407238E+00 2.9407238E+00 2.9407238E+00 9.8000000E+00
EXPONENTS  9.8000000E+00 9.8000000E+00 4.0524489E+01 4.0524489E+01 4.0524489E+01
EXPONENTS  1.4106025E+01 1.4106025E+01 1.4106025E+01 2.7559618E+00 2.7559618E+00
EXPONENTS  2.7559618E+00 1.2726703E+00 1.2726703E+00 1.2726703E+00 5.7787610E-01
EXPONENTS  5.7787610E-01 5.7787610E-01 2.4130820E-01 2.4130820E-01 2.4130820E-01
EXPONENTS  1.1000000E-01 1.1000000E-01 1.1000000E-01 5.0000000E-02 5.0000000E-02
EXPONENTS  5.0000000E-02 2.3000000E-02 2.3000000E-02 2.3000000E-02 8.9701654E+01
EXPONENTS  8.9701654E+01 8.9701654E+01 8.9701654E+01 8.9701654E+01 8.9701654E+01
EXPONENTS  2.6596162E+01 2.6596162E+01 2.6596162E+01 2.6596162E+01 2.6596162E+01
EXPONENTS  2.6596162E+01 9.7727415E+00 9.7727415E+00 9.7727415E+00 9.7727415E+00
EXPONENTS  9.7727415E+00 9.7727415E+00 3.9609842E+00 3.9609842E+00 3.9609842E+00
EXPONENTS  3.9609842E+00 3.9609842E+00 3.9609842E+00 1.6882483E+00 1.6882483E+00
EXPONENTS  1.6882483E+00 1.6882483E+00 1.6882483E+00 1.6882483E+00 7.1490927E-01
EXPONENTS  7.1490927E-01 7.1490927E-01 7.1490927E-01 7.1490927E-01 7.1490927E-01
EXPONENTS  2.9306331E-01 2.9306331E-01 2.9306331E-01 2.9306331E-01 2.9306331E-01
EXPONENTS  2.9306331E-01 1.1024217E-01 1.1024217E-01 1.1024217E-01 1.1024217E-01
EXPONENTS  1.1024217E-01 1.1024217E-01 4.5000000E-02 4.5000000E-02 4.5000000E-02
EXPONENTS  4.5000000E-02 4.5000000E-02 4.5000000E-02 2.0930000E+00 2.0930000E+00
EXPONENTS  2.0930000E+00 2.0930000E+00 2.0930000E+00 2.0930000E+00 2.0930000E+00
EXPONENTS  2.0930000E+00 2.0930000E+00 2.0930000E+00 5.6200000E-01 5.6200000E-01
EXPONENTS  5.6200000E-01 5.6200000E-01 5.6200000E-01 5.6200000E-01 5.6200000E-01
EXPONENTS  5.6200000E-01 5.6200000E-01 5.6200000E-01 1.9100000E-01 1.9100000E-01
EXPONENTS  1.9100000E-01 1.9100000E-01 1.9100000E-01 1.9100000E-01 1.9100000E-01
EXPONENTS  1.9100000E-01 1.9100000E-01 1.9100000E-01 6.3400000E-01 6.3400000E-01
EXPONENTS  6.3400000E-01 6.3400000E-01 6.3400000E-01 6.3400000E-01 6.3400000E-01
EXPONENTS  6.3400000E-01 6.3400000E-01 6.3400000E-01 6.3400000E-01 6.3400000E-01
EXPONENTS  6.3400000E-01 6.3400000E-01 6.3400000E-01
MO    1                     OCC NO =   1.00000000 ORB. ENERGY = -180.22065863
  5.09607040E+00  3.81301537E+00  3.68324816E+00  4.11148830E+00  5.06020555E+00
  6.56571601E+00  8.54136348E+00  1.05409654E+01  1.11574447E+01  8.70882899E+00
  3.74832545E+00 -1.01513659E-02 -3.72245199E-02 -7.77497308E-02 -7.05541931E-02
  5.43381430E-01 -2.81721718E-02  1.33677013E-02 -4.47269629E-03  1.54773614E-03
 -3.23269981E-04  4.86243225E-05 -2.45756626E-05  4.32039028E-06  0.00000000E+00
  0.00000000E+00  0.00000000E+00  0.00000000E+00  0.00000000E+00  0.00000000E+00
  0.00000000E+00  0.00000000E+00  0.00000000E+00  0.00000000E+00  0.00000000E+00
  0.00000000E+00  0.00000000E+00  0.00000000E+00  0.00000000E+00  0.00000000E+00
  0.00000000E+00  0.00000000E+00  0.00000000E+00  0.00000000E+00  0.00000000E+00
  0.00000000E+00  0.00000000E+00  0.00000000E+00  0.00000000E+00  0.00000000E+00
  0.00000000E+00  0.00000000E+00  0.00000000E+00  0.00000000E+00  0.00000000E+00
  0.00000000E+00  0.00000000E+00  0.00000000E+00  0.00000000E+00  0.00000000E+00
  0.00000000E+00  0.00000000E+00  0.00000000E+00  0.00000000E+00  0.00000000E+00
  0.00000000E+00  0.00000000E+00  0.00000000E+00  0.00000000E+00  0.00000000E+00
  0.00000000E+00  0.00000000E+00  0.00000000E+00  0.00000000E+00  0.00000000E+00
  0.00000000E+00  0.00000000E+00  0.00000000E+00  0.00000000E+00  0.00000000E+00
  0.00000000E+00  0.00000000E+00  0.00000000E+00  0.00000000E+00  0.00000000E+00
  0.00000000E+00  0.00000000E+00  0.00000000E+00  0.00000000E+00  0.00000000E+00
  0.00000000E+00  0.00000000E+00  0.00000000E+00  0.00000000E+00  0.00000000E+00
  0.00000000E+00  0.00000000E+00  0.00000000E+00  0.00000000E+00  0.00000000E+00
  0.00000000E+00  0.00000000E+00  0.00000000E+00  0.00000000E+00  0.00000000E+00
  0.00000000E+00  0.00000000E+00  0.00000000E+00  0.00000000E+00  0.00000000E+00
  0.00000000E+00  0.00000000E+00  0.00000000E+00  0.00000000E+00  0.00000000E+00
  0.00000000E+00  0.00000000E+00  0.00000000E+00  0.00000000E+00  0.00000000E+00
  0.00000000E+00  0.00000000E+00  0.00000000E+00  0.00000000E+00  0.00000000E+00
  0.00000000E+00  0.00000000E+00  0.00000000E+00  0.00000000E+00  0.00000000E+00
  0.00000000E+00  0.00000000E+00  0.00000000E+00  0.00000000E+00  0.00000000E+00
  0.00000000E+00  0.00000000E+00  0.00000000E+00  0.00000000E+00  0.00000000E+00
  0.00000000E+00  0.00000000E+00  0.00000000E+00  0.00000000E+00  0.00000000E+00
  0.00000000E+00  0.00000000E+00  0.00000000E+00  0.00000000E+00  0.00000000E+00
  0.00000000E+00  0.00000000E+00  0.00000000E+00  0.00000000E+00  0.00000000E+00
  0.00000000E+00  0.00000000E+00  0.00000000E+00  0.00000000E+00  0.00000000E+00
  0.00000000E+00  0.00000000E+00  0.00000000E+00  0.00000000E+00  0.00000000E+00
  0.00000000E+00  0.00000000E+00  0.00000000E+00  0.00000000E+00  0.00000000E+00
  0.00000000E+00  0.00000000E+00  0.00000000E+00  0.00000000E+00  0.00000000E+00
  0.00000000E+00  0.00000000E+00  0.00000000E+00  0.00000000E+00  0.00000000E+00
  0.00000000E+00  0.00000000E+00  0.00000000E+00
MO    2                     OCC NO =   1.00000000 ORB. ENERGY = -20.24561403
 -1.54210339E+00 -1.15384276E+00 -1.11457437E+00 -1.24416257E+00 -1.53125046E+00
 -1.98682752E+00 -2.58467104E+00 -3.18976333E+00 -3.37631388E+00 -2.63534717E+00
 -1.13426718E+00 -1.93078172E-01 -7.08007404E-01 -1.47879369E+00 -1.34193514E+00
  4.56911296E-01  2.15292551E+00  1.16480235E+00  1.28304778E-01 -8.96190346E-03
  1.77585034E-03 -2.34561197E-04  1.18188084E-04 -2.07539663E-05  0.00000000E+00
  0.00000000E+00  0.00000000E+00  0.00000000E+00  0.00000000E+00  0.00000000E+00
  0.00000000E+00  0.00000000E+00  0.00000000E+00  0.00000000E+00  0.00000000E+00
  0.00000000E+00  0.00000000E+00  0.00000000E+00  0.00000000E+00  0.00000000E+00
  0.00000000E+00  0.00000000E+00  0.00000000E+00  0.00000000E+00  0.00000000E+00
  0.00000000E+00  0.00000000E+00  0.00000000E+00  0.00000000E+00  0.00000000E+00
  0.00000000E+00  0.00000000E+00  0.00000000E+00  0.00000000E+00  0.00000000E+00
  0.00000000E+00  0.00000000E+00  0.00000000E+00  0.00000000E+00  0.00000000E+00
  0.00000000E+00  0.00000000E+00  0.00000000E+00  0.00000000E+00  0.00000000E+00
  0.00000000E+00  0.00000000E+00  0.00000000E+00  0.00000000E+00  0.00000000E+00
  0.00000000E+00  0.00000000E+00  0.00000000E+00  0.00000000E+00  0.00000000E+00
  0.00000000E+00  0.00000000E+00  0.00000000E+00  0.00000000E+00  0.00000000E+00
  0.00000000E+00  0.00000000E+00  0.00000000E+00  0.00000000E+00  0.00000000E+00
  0.00000000E+00  0.00000000E+00  0.00000000E+00  0.00000000E+00  0.00000000E+00
  0.00000000E+00  0.00000000E+00  0.00000000E+00  0.00000000E+00  0.00000000E+00
  0.00000000E+00  0.00000000E+00  0.00000000E+00  0.00000000E+00  0.00000000E+00
  0.00000000E+00  0.00000000E+00  0.00000000E+00  0.00000000E+00  0.00000000E+00
  0.00000000E+00  0.00000000E+00  0.00000000E+00  0.00000000E+00  0.00000000E+00
  0.00000000E+00  0.00000000E+00  0.00000000E+00  0.00000000E+00  0.00000000E+00
  0.00000000E+00  0.00000000E+00  0.00000000E+00  0.00000000E+00  0.00000000E+00
  0.00000000E+00  0.00000000E+00  0.00000000E+00  0.00000000E+00  0.00000000E+00
  0.00000000E+00  0.00000000E+00  0.00000000E+00  0.00000000E+00  0.00000000E+00
  0.00000000E+00  0.00000000E+00  0.00000000E+00  0.00000000E+00  0.00000000E+00
  0.00000000E+00  0.00000000E+00  0.00000000E+00  0.00000000E+00  0.00000000E+00
  0.00000000E+00  0.00000000E+00  0.00000000E+00  0.00000000E+00  0.00000000E+00
  0.00000000E+00  0.00000000E+00  0.00000000E+00  0.00000000E+00  0.00000000E+00
  0.00000000E+00  0.00000000E+00  0.00000000E+00  0.00000000E+00  0.00000000E+00
  0.00000000E+00  0.00000000E+00  0.00000000E+00  0.00000000E+00  0.00000000E+00
  0.00000000E+00  0.00000000E+00  0.00000000E+00  0.00000000E+00  0.00000000E+00
  0.00000000E+00  0.00000000E+00  0.00000000E+00  0.00000000E+00  0.00000000E+00
  0.00000000E+00  0.00000000E+00  0.00000000E+00  0.00000000E+00  0.00000000E+00
  0.00000000E+00  0.00000000E+00  0.00000000E+00  0.00000000E+00  0.00000000E+00
  0.00000000E+00  0.00000000E+00  0.00000000E+00
MO    3                     OCC NO =   1.00000000 ORB. ENERGY =  -2.51348797
  5.64119511E-01  4.22089218E-01  4.07724382E-01  4.55129265E-01  5.60149381E-01
  7.26804816E-01  9.45502989E-01  1.16685285E+00  1.23509523E+00  9.64040913E-01
  4.14928240E-01  8.35896685E-02  3.06518876E-01  6.40216723E-01  5.80966311E-01
 -2.13703837E-01 -1.23355515E+00 -1.04678534E+00  1.43803862E-01  5.28851547E-01
  1.60404510E-01  3.52188834E-03 -1.21360049E-03  1.84820289E-04  0.00000000E+00
  0.00000000E+00  0.00000000E+00  0.00000000E+00  0.00000000E+00  0.00000000E+00
  0.00000000E+00  0.00000000E+00  0.00000000E+00  0.00000000E+00  0.00000000E+00
  0.00000000E+00  0.00000000E+00  0.00000000E+00  0.00000000E+00  0.00000000E+00
  0.00000000E+00  0.00000000E+00  0.00000000E+00  0.00000000E+00  0.00000000E+00
  0.00000000E+00  0.00000000E+00  0.00000000E+00  0.00000000E+00  0.00000000E+00
  0.00000000E+00  0.00000000E+00  0.00000000E+00  0.00000000E+00  0.00000000E+00
  0.00000000E+00  0.00000000E+00  0.00000000E+00  0.00000000E+00  0.00000000E+00
  0.00000000E+00  0.00000000E+00  0.00000000E+00  0.00000000E+00  0.00000000E+00
  0.00000000E+00  0.00000000E+00  0.00000000E+00  0.00000000E+00  0.00000000E+00
  0.00000000E+00  0.00000000E+00  0.00000000E+00  0.00000000E+00  0.00000000E+00
  0.00000000E+00  0.00000000E+00  0.00000000E+00  0.00000000E+00  0.00000000E+00
  0.00000000E+00  0.00000000E+00  0.00000000E+00  0.00000000E+00  0.00000000E+00
  0.00000000E+00  0.00000000E+00  0.00000000E+00  0.00000000E+00  0.00000000E+00
  0.00000000E+00  0.00000000E+00  0.00000000E+00  0.00000000E+00  0.00000000E+00
  0.00000000E+00  0.00000000E+00  0.00000000E+00  0.00000000E+00  0.00000000E+00
  0.00000000E+00  0.00000000E+00  0.00000000E+00  0.00000000E+00  0.00000000E+00
  0.00000000E+00  0.00000000E+00  0.00000000E+00  0.00000000E+00  0.00000000E+00
  0.00000000E+00  0.00000000E+00  0.00000000E+00  0.00000000E+00  0.00000000E+00
  0.00000000E+00  0.00000000E+00  0.00000000E+00  0.00000000E+00  0.00000000E+00
  0.00000000E+00  0.00000000E+00  0.00000000E+00  0.00000000E+00  0.00000000E+00
  0.00000000E+00  0.00000000E+00  0.00000000E+00  0.00000000E+00  0.00000000E+00
  0.00000000E+00  0.00000000E+00  0.00000000E+00  0.00000000E+00  0.00000000E+00
  0.00000000E+00  0.00000000E+00  0.00000000E+00  0.00000000E+00  0.00000000E+00
  0.00000000E+00  0.00000000E+00  0.00000000E+00  0.00000000E+00  0.00000000E+00
  0.00000000E+00  0.00000000E+00  0.00000000E+00  0.00000000E+00  0.00000000E+00
  0.00000000E+00  0.00000000E+00  0.00000000E+00  0.00000000E+00  0.00000000E+00
  0.00000000E+00  0.00000000E+00  0.00000000E+00  0.00000000E+00  0.00000000E+00
  0.00000000E+00  0.00000000E+00  0.00000000E+00  0.00000000E+00  0.00000000E+00
  0.00000000E+00  0.00000000E+00  0.00000000E+00  0.00000000E+00  0.00000000E+00
  0.00000000E+00  0.00000000E+00  0.00000000E+00  0.00000000E+00  0.00000000E+00
  0.00000000E+00  0.00000000E+00  0.00000000E+00  0.00000000E+00  0.00000000E+00
  0.00000000E+00  0.00000000E+00  0.00000000E+00
MO    4                     OCC NO =   1.00000000 ORB. ENERGY =  -0.19696606
 -1.53066776E-01 -1.14528631E-01 -1.10630913E-01 -1.23493635E-01 -1.51989531E-01
 -1.97209399E-01 -2.56550414E-01 -3.16610931E-01 -3.35127646E-01 -2.61580447E-01
 -1.12585590E-01 -2.31453750E-02 -8.48728614E-02 -1.77271383E-01 -1.60865372E-01
  5.93418468E-02  3.55623255E-01  3.21639885E-01 -5.30973520E-02 -2.32194157E-01
 -1.09892130E-01  6.87141330E-02  4.04210221E-02  7.77696371E-03  0.00000000E+00
  0.00000000E+00  0.00000000E+00  0.00000000E+00  0.00000000E+00  0.00000000E+00
  0.00000000E+00  0.00000000E+00  0.00000000E+00  0.00000000E+00  0.00000000E+00
  0.00000000E+00  0.00000000E+00  0.00000000E+00  0.00000000E+00  0.00000000E+00
  0.00000000E+00  0.00000000E+00  0.00000000E+00  0.00000000E+00  0.00000000E+00
  0.00000000E+00  0.00000000E+00  0.00000000E+00  0.00000000E+00  0.00000000E+00
  0.00000000E+00  0.00000000E+00  0.00000000E+00  0.00000000E+00  0.00000000E+00
  0.00000000E+00  0.00000000E+00  0.00000000E+00  0.00000000E+00  0.00000000E+00
  0.00000000E+00  0.00000000E+00  0.00000000E+00  0.00000000E+00  0.00000000E+00
  0.00000000E+00  0.00000000E+00  0.00000000E+00  0.00000000E+00  0.00000000E+00
  0.00000000E+00  0.00000000E+00  0.00000000E+00  0.00000000E+00  0.00000000E+00
  0.00000000E+00  0.00000000E+00  0.00000000E+00  0.00000000E+00  0.00000000E+00
  0.00000000E+00  0.00000000E+00  0.00000000E+00  0.00000000E+00  0.00000000E+00
  0.00000000E+00  0.00000000E+00  0.00000000E+00  0.00000000E+00  0.00000000E+00
  0.00000000E+00  0.00000000E+00  0.00000000E+00  0.00000000E+00  0.00000000E+00
  0.00000000E+00  0.00000000E+00  0.00000000E+00  0.00000000E+00  0.00000000E+00
  0.00000000E+00  0.00000000E+00  0.00000000E+00  0.00000000E+00  0.00000000E+00
  0.00000000E+00  0.00000000E+00  0.00000000E+00  0.00000000E+00  0.00000000E+00
  0.00000000E+00  0.00000000E+00  0.00000000E+00  0.00000000E+00  0.00000000E+00
  0.00000000E+00  0.00000000E+00  0.00000000E+00  0.00000000E+00  0.00000000E+00
  0.00000000E+00  0.00000000E+00  0.00000000E+00  0.00000000E+00  0.00000000E+00
  0.00000000E+00  0.00000000E+00  0.00000000E+00  0.00000000E+00  0.00000000E+00
  0.00000000E+00  0.00000000E+00  0.00000000E+00  0.00000000E+00  0.00000000E+00
  0.00000000E+00  0.00000000E+00  0.00000000E+00  0.00000000E+00  0.00000000E+00
  0.00000000E+00  0.00000000E+00  0.00000000E+00  0.00000000E+00  0.00000000E+00
  0.00000000E+00  0.00000000E+00  0.00000000E+00  0.00000000E+00  0.00000000E+00
  0.00000000E+00  0.00000000E+00  0.00000000E+00  0.00000000E+00  0.00000000E+00
  0.00000000E+00  0.00000000E+00  0.00000000E+00  0.00000000E+00  0.00000000E+00
  0.00000000E+00  0.00000000E+00  0.00000000E+00  0.00000000E+00  0.00000000E+00
  0.00000000E+00  0.00000000E+00  0.00000000E+00  0.00000000E+00  0.00000000E+00
  0.00000000E+00  0.00000000E+00  0.00000000E+00  0.00000000E+00  0.00000000E+00
  0.00000000E+00  0.00000000E+00  0.00000000E+00  0.00000000E+00  0.00000000E+00
  0.00000000E+00  0.00000000E+00  0.00000000E+00
MO    5                     OCC NO =   1.00000000 ORB. ENERGY = -16.73159226
  0.00000000E+00  0.00000000E+00  0.00000000E+00  0.00000000E+00  0.00000000E+00
  0.00000000E+00  0.00000000E+00  0.00000000E+00  0.00000000E+00  0.00000000E+00
  0.00000000E+00  0.00000000E+00  0.00000000E+00  0.00000000E+00  0.00000000E+00
  0.00000000E+00  0.00000000E+00  0.00000000E+00  0.00000000E+00  0.00000000E+00
  0.00000000E+00  0.00000000E+00  0.00000000E+00  0.00000000E+00  1.59284016E+01
  0.00000000E+00  0.00000000E+00  1.46941864E+01  0.00000000E+00  0.00000000E+00
  1.89878376E+01  0.00000000E+00  0.00000000E+00  2.56282998E+01  0.00000000E+00
  0.00000000E+00  2.89855160E+01  0.00000000E+00  0.00000000E+00  2.92406232E+01
  0.00000000E+00  0.00000000E+00  2.40718852E+01  0.00000000E+00  0.00000000E+00
  1.36132402E+01  0.00000000E+00  0.00000000E+00  4.40259814E+00  0.00000000E+00
  0.00000000E+00  4.75107483E-01  0.00000000E+00  0.00000000E+00 -5.70898328E-02
  0.00000000E+00  0.00000000E+00 -7.57727344E-03  0.00000000E+00  0.00000000E+00
 -8.84796983E-03  0.00000000E+00  0.00000000E+00  1.24195282E-02  0.00000000E+00
  0.00000000E+00  1.00200755E-02  0.00000000E+00  0.00000000E+00  3.06025063E-03
  0.00000000E+00  0.00000000E+00 -1.70331961E-03  0.00000000E+00  0.00000000E+00
  5.73433518E-04  0.00000000E+00  0.00000000E+00 -1.24359560E-04  0.00000000E+00
  0.00000000E+00  1.54274596E-05  0.00000000E+00  0.00000000E+00  0.00000000E+00
  0.00000000E+00  0.00000000E+00  0.00000000E+00  0.00000000E+00  0.00000000E+00
  0.00000000E+00  0.00000000E+00  0.00000000E+00  0.00000000E+00  0.00000000E+00
  0.00000000E+00  0.00000000E+00  0.00000000E+00  0.00000000E+00  0.00000000E+00
  0.00000000E+00  0.00000000E+00  0.00000000E+00  0.00000000E+00  0.00000000E+00
  0.00000000E+00  0.00000000E+00  0.00000000E+00  0.00000000E+00  0.00000000E+00
  0.00000000E+00  0.00000000E+00  0.00000000E+00  0.00000000E+00  0.00000000E+00
  0.00000000E+00  0.00000000E+00  0.00000000E+00  0.00000000E+00  0.00000000E+00
  0.00000000E+00  0.00000000E+00  0.00000000E+00  0.00000000E+00  0.00000000E+00
  0.00000000E+00  0.00000000E+00  0.00000000E+00  0.00000000E+00  0.00000000E+00
  0.00000000E+00  0.00000000E+00  0.00000000E+00  0.00000000E+00  0.00000000E+00
  0.00000000E+00  0.00000000E+00  0.00000000E+00  0.00000000E+00  0.00000000E+00
  0.00000000E+00  0.00000000E+00  0.00000000E+00  0.00000000E+00  0.00000000E+00
  0.00000000E+00  0.00000000E+00  0.00000000E+00  0.00000000E+00  0.00000000E+00
  0.00000000E+00  0.00000000E+00  0.00000000E+00  0.00000000E+00  0.00000000E+00
  0.00000000E+00  0.00000000E+00  0.00000000E+00  0.00000000E+00  0.00000000E+00
  0.00000000E+00  0.00000000E+00  0.00000000E+00  0.00000000E+00  0.00000000E+00
  0.00000000E+00  0.00000000E+00  0.00000000E+00  0.00000000E+00  0.00000000E+00
  0.00000000E+00  0.00000000E+00  0.00000000E+00  0.00000000E+00  0.00000000E+00
  0.00000000E+00  0.00000000E+00  0.00000000E+00  0.00000000E+00  0.00000000E+00
  0.00000000E+00  0.00000000E+00  0.00000000E+00
MO    6                     OCC NO =   1.00000000 ORB. ENERGY = -16.73159226
  0.00000000E+00  0.00000000E+00  0.00000000E+00  0.00000000E+00  0.00000000E+00
  0.00000000E+00  0.00000000E+00  0.00000000E+00  0.00000000E+00  0.00000000E+00
  0.00000000E+00  0.00000000E+00  0.00000000E+00  0.00000000E+00  0.00000000E+00
  0.00000000E+00  0.00000000E+00  0.00000000E+00  0.00000000E+00  0.00000000E+00
  0.00000000E+00  0.00000000E+00  0.00000000E+00  0.00000000E+00  0.00000000E+00
  1.59284016E+01  0.00000000E+00  0.00000000E+00  1.46941864E+01  0.00000000E+00
  0.00000000E+00  1.89878376E+01  0.00000000E+00  0.00000000E+00  2.56282998E+01
  0.00000000E+00  0.00000000E+00  2.89855160E+01  0.00000000E+00  0.00000000E+00
  2.92406232E+01  0.00000000E+00  0.00000000E+00  2.40718852E+01  0.00000000E+00
  0.00000000E+00  1.36132402E+01  0.00000000E+00  0.00000000E+00  4.40259814E+00
  0.00000000E+00  0.00000000E+00  4.75107483E-01  0.00000000E+00  0.00000000E+00
 -5.70898328E-02  0.00000000E+00  0.00000000E+00 -7.57727344E-03  0.00000000E+00
  0.00000000E+00 -8.84796983E-03  0.00000000E+00  0.00000000E+00  1.24195282E-02
  0.00000000E+00  0.00000000E+00  1.00200755E-02  0.00000000E+00  0.00000000E+00
  3.06025063E-03  0.00000000E+00  0.00000000E+00 -1.70331961E-03  0.00000000E+00
  0.00000000E+00  5.73433518E-04  0.00000000E+00  0.00000000E+00 -1.24359560E-04
  0.00000000E+00  0.00000000E+00  1.54274596E-05  0.00000000E+00  0.00000000E+00
  0.00000000E+00  0.00000000E+00  0.00000000E+00  0.00000000E+00  0.00000000E+00
  0.00000000E+00  0.00000000E+00  0.00000000E+00  0.00000000E+00  0.00000000E+00
  0.00000000E+00  0.00000000E+00  0.00000000E+00  0.00000000E+00  0.00000000E+00
  0.00000000E+00  0.00000000E+00  0.00000000E+00  0.00000000E+00  0.00000000E+00
  0.00000000E+00  0.00000000E+00  0.00000000E+00  0.00000000E+00  0.00000000E+00
  0.00000000E+00  0.00000000E+00  0.00000000E+00  0.00000000E+00  0.00000000E+00
  0.00000000E+00  0.00000000E+00  0.00000000E+00  0.00000000E+00  0.00000000E+00
  0.00000000E+00  0.00000000E+00  0.00000000E+00  0.00000000E+00  0.00000000E+00
  0.00000000E+00  0.00000000E+00  0.00000000E+00  0.00000000E+00  0.00000000E+00
  0.00000000E+00  0.00000000E+00  0.00000000E+00  0.00000000E+00  0.00000000E+00
  0.00000000E+00  0.00000000E+00  0.00000000E+00  0.00000000E+00  0.00000000E+00
  0.00000000E+00  0.00000000E+00  0.00000000E+00  0.00000000E+00  0.00000000E+00
  0.00000000E+00  0.00000000E+00  0.00000000E+00  0.00000000E+00  0.00000000E+00
  0.00000000E+00  0.00000000E+00  0.00000000E+00  0.00000000E+00  0.00000000E+00
  0.00000000E+00  0.00000000E+00  0.00000000E+00  0.00000000E+00  0.00000000E+00
  0.00000000E+00  0.00000000E+00  0.00000000E+00  0.00000000E+00  0.00000000E+00
  0.00000000E+00  0.00000000E+00  0.00000000E+00  0.00000000E+00  0.00000000E+00
  0.00000000E+00  0.00000000E+00  0.00000000E+00  0.00000000E+00  0.00000000E+00
  0.00000000E+00  0.00000000E+00  0.00000000E+00  0.00000000E+00  0.00000000E+00
  0.00000000E+00  0.00000000E+00  0.00000000E+00
MO    7                     OCC NO =   1.00000000 ORB. ENERGY = -16.73159226
  0.00000000E+00  0.00000000E+00  0.00000000E+00  0.00000000E+00  0.00000000E+00
  0.00000000E+00  0.00000000E+00  0.00000000E+00  0.00000000E+00  0.00000000E+00
  0.00000000E+00  0.00000000E+00  0.00000000E+00  0.00000000E+00  0.00000000E+00
  0.00000000E+00  0.00000000E+00  0.00000000E+00  0.00000000E+00  0.00000000E+00
  0.00000000E+00  0.00000000E+00  0.00000000E+00  0.00000000E+00  0.00000000E+00
  0.00000000E+00  1.59284016E+01  0.00000000E+00  0.00000000E+00  1.46941864E+01
  0.00000000E+00  0.00000000E+00  1.89878376E+01  0.00000000E+00  0.00000000E+00
  2.56282998E+01  0.00000000E+00  0.00000000E+00  2.89855160E+01  0.00000000E+00
  0.00000000E+00  2.92406232E+01  0.00000000E+00  0.00000000E+00  2.40718852E+01
  0.00000000E+00  0.00000000E+00  1.36132402E+01  0.00000000E+00  0.00000000E+00
  4.40259814E+00  0.00000000E+00  0.00000000E+00  4.75107483E-01  0.00000000E+00
  0.00000000E+00 -5.70898328E-02  0.00000000E+00  0.00000000E+00 -7.57727344E-03
  0.00000000E+00  0.00000000E+00 -8.84796983E-03  0.00000000E+00  0.00000000E+00
  1.24195282E-02  0.00000000E+00  0.00000000E+00  1.00200755E-02  0.00000000E+00
  0.00000000E+00  3.06025063E-03  0.00000000E+00  0.00000000E+00 -1.70331961E-03
  0.00000000E+00  0.00000000E+00  5.73433518E-04  0.00000000E+00  0.00000000E+00
 -1.24359560E-04  0.00000000E+00  0.00000000E+00  1.54274596E-05  0.00000000E+00
  0.00000000E+00  0.00000000E+00  0.00000000E+00  0.00000000E+00  0.00000000E+00
  0.00000000E+00  0.00000000E+00  0.00000000E+00  0.00000000E+00  0.00000000E+00
  0.00000000E+00  0.00000000E+00  0.00000000E+00  0.00000000E+00  0.00000000E+00
  0.00000000E+00  0.00000000E+00  0.00000000E+00  0.00000000E+00  0.00000000E+00
  0.00000000E+00  0.00000000E+00  0.00000000E+00  0.00000000E+00  0.00000000E+00
  0.00000000E+00  0.00000000E+00  0.00000000E+00  0.00000000E+00  0.00000000E+00
  0.00000000E+00  0.00000000E+00  0.00000000E+00  0.00000000E+00  0.00000000E+00
  0.00000000E+00  0.00000000E+00  0.00000000E+00  0.00000000E+00  0.00000000E+00
  0.00000000E+00  0.00000000E+00  0.00000000E+00  0.00000000E+00  0.00000000E+00
  0.00000000E+00  0.00000000E+00  0.00000000E+00  0.00000000E+00  0.00000000E+00
  0.00000000E+00  0.00000000E+00  0.00000000E+00  0.00000000E+00  0.00000000E+00
  0.00000000E+00  0.00000000E+00  0.00000000E+00  0.00000000E+00  0.00000000E+00
  0.00000000E+00  0.00000000E+00  0.00000000E+00  0.00000000E+00  0.00000000E+00
  0.00000000E+00  0.00000000E+00  0.00000000E+00  0.00000000E+00  0.00000000E+00
  0.00000000E+00  0.00000000E+00  0.00000000E+00  0.00000000E+00  0.00000000E+00
  0.00000000E+00  0.00000000E+00  0.00000000E+00  0.00000000E+00  0.00000000E+00
  0.00000000E+00  0.00000000E+00  0.00000000E+00  0.00000000E+00  0.00000000E+00
  0.00000000E+00  0.00000000E+00  0.00000000E+00  0.00000000E+00  0.00000000E+00
  0.00000000E+00  0.00000000E+00  0.00000000E+00  0.00000000E+00  0.00000000E+00
  0.00000000E+00  0.00000000E+00  0.00000000E+00
MO    8                     OCC NO =   1.00000000 ORB. ENERGY =  -1.58270091
  0.00000000E+00  0.00000000E+00  0.00000000E+00  0.00000000E+00  0.00000000E+00
  0.00000000E+00  0.00000000E+00  0.00000000E+00  0.00000000E+00  0.00000000E+00
  0.00000000E+00  0.00000000E+00  0.00000000E+00  0.00000000E+00  0.00000000E+00
  0.00000000E+00  0.00000000E+00  0.00000000E+00  0.00000000E+00  0.00000000E+00
  0.00000000E+00  0.00000000E+00  0.00000000E+00  0.00000000E+00 -5.75893704E+00
  0.00000000E+00  0.00000000E+00 -5.31270472E+00  0.00000000E+00  0.00000000E+00
 -6.86508065E+00  0.00000000E+00  0.00000000E+00 -9.26594950E+00  0.00000000E+00
  0.00000000E+00 -1.04797560E+01  0.00000000E+00  0.00000000E+00 -1.05719904E+01
  0.00000000E+00  0.00000000E+00 -8.70322552E+00  0.00000000E+00  0.00000000E+00
 -4.92188701E+00  0.00000000E+00  0.00000000E+00 -1.59176584E+00  0.00000000E+00
  0.00000000E+00 -1.71775810E-01  0.00000000E+00  0.00000000E+00  1.59628138E-01
  0.00000000E+00  0.00000000E+00 -7.04509932E-01  0.00000000E+00  0.00000000E+00
 -8.22655097E-01  0.00000000E+00  0.00000000E+00  1.15472683E+00  0.00000000E+00
  0.00000000E+00  9.31633627E-01  0.00000000E+00  0.00000000E+00  2.84532026E-01
  0.00000000E+00  0.00000000E+00  1.76094787E-02  0.00000000E+00  0.00000000E+00
  1.09007122E-03  0.00000000E+00  0.00000000E+00 -2.21648672E-04  0.00000000E+00
  0.00000000E+00  3.10079544E-05  0.00000000E+00  0.00000000E+00  0.00000000E+00
  0.00000000E+00  0.00000000E+00  0.00000000E+00  0.00000000E+00  0.00000000E+00
  0.00000000E+00  0.00000000E+00  0.00000000E+00  0.00000000E+00  0.00000000E+00
  0.00000000E+00  0.00000000E+00  0.00000000E+00  0.00000000E+00  0.00000000E+00
  0.00000000E+00  0.00000000E+00  0.00000000E+00  0.00000000E+00  0.00000000E+00
  0.00000000E+00  0.00000000E+00  0.00000000E+00  0.00000000E+00  0.00000000E+00
  0.00000000E+00  0.00000000E+00  0.00000000E+00  0.00000000E+00  0.00000000E+00
  0.00000000E+00  0.00000000E+00  0.00000000E+00  0.00000000E+00  0.00000000E+00
  0.00000000E+00  0.00000000E+00  0.00000000E+00  0.00000000E+00  0.00000000E+00
  0.00000000E+00  0.00000000E+00  0.00000000E+00  0.00000000E+00  0.00000000E+00
  0.00000000E+00  0.00000000E+00  0.00000000E+00  0.00000000E+00  0.00000000E+00
  0.00000000E+00  0.00000000E+00  0.00000000E+00  0.00000000E+00  0.00000000E+00
  0.00000000E+00  0.00000000E+00  0.00000000E+00  0.00000000E+00  0.00000000E+00
  0.00000000E+00  0.00000000E+00  0.00000000E+00  0.00000000E+00  0.00000000E+00
  0.00000000E+00  0.00000000E+00  0.00000000E+00  0.00000000E+00  0.00000000E+00
  0.00000000E+00  0.00000000E+00  0.00000000E+00  0.00000000E+00  0.00000000E+00
  0.00000000E+00  0.00000000E+00  0.00000000E+00  0.00000000E+00  0.00000000E+00
  0.00000000E+00  0.00000000E+00  0.00000000E+00  0.00000000E+00  0.00000000E+00
  0.00000000E+00  0.00000000E+00  0.00000000E+00  0.00000000E+00  0.00000000E+00
  0.00000000E+00  0.00000000E+00  0.00000000E+00  0.00000000E+00  0.00000000E+00
  0.00000000E+00  0.00000000E+00  0.00000000E+00
MO    9                     OCC NO =   1.00000000 ORB. ENERGY =  -1.58270091
  0.00000000E+00  0.00000000E+00  0.00000000E+00  0.00000000E+00  0.00000000E+00
  0.00000000E+00  0.00000000E+00  0.00000000E+00  0.00000000E+00  0.00000000E+00
  0.00000000E+00  0.00000000E+00  0.00000000E+00  0.00000000E+00  0.00000000E+00
  0.00000000E+00  0.00000000E+00  0.00000000E+00  0.00000000E+00  0.00000000E+00
  0.00000000E+00  0.00000000E+00  0.00000000E+00  0.00000000E+00  0.00000000E+00
 -5.75893704E+00  0.00000000E+00  0.00000000E+00 -5.31270472E+00  0.00000000E+00
  0.00000000E+00 -6.86508065E+00  0.00000000E+00  0.00000000E+00 -9.26594950E+00
  0.00000000E+00  0.00000000E+00 -1.04797560E+01  0.00000000E+00  0.00000000E+00
 -1.05719904E+01  0.00000000E+00  0.00000000E+00 -8.70322552E+00  0.00000000E+00
  0.00000000E+00 -4.92188701E+00  0.00000000E+00  0.00000000E+00 -1.59176584E+00
  0.00000000E+00  0.00000000E+00 -1.71775810E-01  0.00000000E+00  0.00000000E+00