atomref-proatoms Tl_q0_mult2_nist x2c-QZVPall
GAUSSIAN             83 MOL ORBITALS    387 PRIMITIVES        1 NUCLEI
  Tl   1    (CENTRE  1)   0.00000000  0.00000000  0.00000000  CHARGE = 81.0
CENTRE ASSIGNMENTS    1  1  1  1  1  1  1  1  1  1  1  1  1  1  1  1  1  1  1  1
CENTRE ASSIGNMENTS    1  1  1  1  1  1  1  1  1  1  1  1  1  1  1  1  1  1  1  1
CENTRE ASSIGNMENTS    1  1  1  1  1  1  1  1  1  1  1  1  1  1  1  1  1  1  1  1
CENTRE ASSIGNMENTS    1  1  1  1  1  1  1  1  1  1  1  1  1  1  1  1  1  1  1  1
CENTRE ASSIGNMENTS    1  1  1  1  1  1  1  1  1  1  1  1  1  1  1  1  1  1  1  1
CENTRE ASSIGNMENTS    1  1  1  1  1  1  1  1  1  1  1  1  1  1  1  1  1  1  1  1
CENTRE ASSIGNMENTS    1  1  1  1  1  1  1  1  1  1  1  1  1  1  1  1  1  1  1  1
CENTRE ASSIGNMENTS    1  1  1  1  1  1  1  1  1  1  1  1  1  1  1  1  1  1  1  1
CENTRE ASSIGNMENTS    1  1  1  1  1  1  1  1  1  1  1  1  1  1  1  1  1  1  1  1
CENTRE ASSIGNMENTS    1  1  1  1  1  1  1  1  1  1  1  1  1  1  1  1  1  1  1  1
CENTRE ASSIGNMENTS    1  1  1  1  1  1  1  1  1  1  1  1  1  1  1  1  1  1  1  1
CENTRE ASSIGNMENTS    1  1  1  1  1  1  1  1  1  1  1  1  1  1  1  1  1  1  1  1
CENTRE ASSIGNMENTS    1  1  1  1  1  1  1  1  1  1  1  1  1  1  1  1  1  1  1  1
CENTRE ASSIGNMENTS    1  1  1  1  1  1  1  1  1  1  1  1  1  1  1  1  1  1  1  1
CENTRE ASSIGNMENTS    1  1  1  1  1  1  1  1  1  1  1  1  1  1  1  1  1  1  1  1
CENTRE ASSIGNMENTS    1  1  1  1  1  1  1  1  1  1  1  1  1  1  1  1  1  1  1  1
CENTRE ASSIGNMENTS    1  1  1  1  1  1  1  1  1  1  1  1  1  1  1  1  1  1  1  1
CENTRE ASSIGNMENTS    1  1  1  1  1  1  1  1  1  1  1  1  1  1  1  1  1  1  1  1
CENTRE ASSIGNMENTS    1  1  1  1  1  1  1  1  1  1  1  1  1  1  1  1  1  1  1  1
CENTRE ASSIGNMENTS    1  1  1  1  1  1  1
TYPE ASSIGNMENTS      1  1  1  1  1  1  1  1  1  1  1  1  1  1  1  1  1  1  1  1
TYPE ASSIGNMENTS      1  1  1  1  1  1  1  1  1  1  2  3  4  2  3  4  2  3  4  2
TYPE ASSIGNMENTS      3  4  2  3  4  2  3  4  2  3  4  2  3  4  2  3  4  2  3  4
TYPE ASSIGNMENTS      2  3  4  2  3  4  2  3  4  2  3  4  2  3  4  2  3  4  2  3
TYPE ASSIGNMENTS      4  2  3  4  2  3  4  2  3  4  2  3  4  2  3  4  2  3  4  2
TYPE ASSIGNMENTS      3  4  2  3  4  2  3  4  2  3  4  2  3  4  2  3  4  2  3  4
TYPE ASSIGNMENTS      2  3  4  2  3  4  2  3  4  2  3  4  5  8  9  6 10  7  5  8
TYPE ASSIGNMENTS      9  6 10  7  5  8  9  6 10  7  5  8  9  6 10  7  5  8  9  6
TYPE ASSIGNMENTS     10  7  5  8  9  6 10  7  5  8  9  6 10  7  5  8  9  6 10  7
TYPE ASSIGNMENTS      5  8  9  6 10  7  5  8  9  6 10  7  5  8  9  6 10  7  5  8
TYPE ASSIGNMENTS      9  6 10  7  5  8  9  6 10  7  5  8  9  6 10  7  5  8  9  6
TYPE ASSIGNMENTS     10  7  5  8  9  6 10  7  5  8  9  6 10  7  5  8  9  6 10  7
TYPE ASSIGNMENTS      5  8  9  6 10  7  5  8  9  6 10  7 11 14 15 17 20 18 12 16
TYPE ASSIGNMENTS     19 13 11 14 15 17 20 18 12 16 19 13 11 14 15 17 20 18 12 16
TYPE ASSIGNMENTS     19 13 11 14 15 17 20 18 12 16 19 13 11 14 15 17 20 18 12 16
TYPE ASSIGNMENTS     19 13 11 14 15 17 20 18 12 16 19 13 11 14 15 17 20 18 12 16
TYPE ASSIGNMENTS     19 13 11 14 15 17 20 18 12 16 19 13 11 14 15 17 20 18 12 16
TYPE ASSIGNMENTS     19 13 11 14 15 17 20 18 12 16 19 13 11 14 15 17 20 18 12 16
TYPE ASSIGNMENTS     19 13 11 14 15 17 20 18 12 16 19 13 21 24 25 30 33 31 26 34
TYPE ASSIGNMENTS     35 28 22 27 32 29 23
EXPONENTS  6.7412919E+07 1.8974452E+07 5.6505930E+06 1.7803259E+06 5.9346666E+05
EXPONENTS  2.0930833E+05 7.8100035E+04 3.1506919E+04 1.3406292E+04 6.1520388E+03
EXPONENTS  2.9532551E+03 1.4244881E+03 7.5629520E+04 1.6054659E+04 4.7350178E+03
EXPONENTS  1.7344752E+03 6.8280942E+02 3.4575435E+02 1.6850409E+02 8.7060314E+01
EXPONENTS  4.4584041E+01 2.3805085E+01 1.1251875E+01 5.8597542E+00 2.3534152E+00
EXPONENTS  1.3092242E+00 5.8341111E-01 3.0876547E-01 1.3030546E-01 5.4870388E-02
EXPONENTS  3.1000000E+02 3.1000000E+02 3.1000000E+02 1.3437903E+07 1.3437903E+07
EXPONENTS  1.3437903E+07 2.6094774E+06 2.6094774E+06 2.6094774E+06 6.5974411E+05
EXPONENTS  6.5974411E+05 6.5974411E+05 1.9327058E+05 1.9327058E+05 1.9327058E+05
EXPONENTS  6.3120265E+04 6.3120265E+04 6.3120265E+04 2.2260849E+04 2.2260849E+04
EXPONENTS  2.2260849E+04 8.3432400E+03 8.3432400E+03 8.3432400E+03 3.3245118E+03
EXPONENTS  3.3245118E+03 3.3245118E+03 1.3856875E+03 1.3856875E+03 1.3856875E+03
EXPONENTS  6.1370304E+02 6.1370304E+02 6.1370304E+02 2.8998803E+02 2.8998803E+02
EXPONENTS  2.8998803E+02 1.4400008E+02 1.4400008E+02 1.4400008E+02 7.3651173E+01
EXPONENTS  7.3651173E+01 7.3651173E+01 2.2677954E+03 2.2677954E+03 2.2677954E+03
EXPONENTS  7.7030486E+02 7.7030486E+02 7.7030486E+02 3.4211246E+02 3.4211246E+02
EXPONENTS  3.4211246E+02 8.4984869E+01 8.4984869E+01 8.4984869E+01 4.4329254E+01
EXPONENTS  4.4329254E+01 4.4329254E+01 2.2645901E+01 2.2645901E+01 2.2645901E+01
EXPONENTS  9.8067831E+00 9.8067831E+00 9.8067831E+00 1.1583340E+02 1.1583340E+02
EXPONENTS  1.1583340E+02 4.6985516E+01 4.6985516E+01 4.6985516E+01 1.3775192E+01
EXPONENTS  1.3775192E+01 1.3775192E+01 7.3593072E+00 7.3593072E+00 7.3593072E+00
EXPONENTS  3.7849041E+00 3.7849041E+00 3.7849041E+00 7.4349069E+00 7.4349069E+00
EXPONENTS  7.4349069E+00 2.3630713E+00 2.3630713E+00 2.3630713E+00 1.1940484E+00
EXPONENTS  1.1940484E+00 1.1940484E+00 1.3982242E+00 1.3982242E+00 1.3982242E+00
EXPONENTS  4.6958112E-01 4.6958112E-01 4.6958112E-01 2.3629475E-01 2.3629475E-01
EXPONENTS  2.3629475E-01 8.9426280E-02 8.9426280E-02 8.9426280E-02 3.3212957E-02
EXPONENTS  3.3212957E-02 3.3212957E-02 7.3269446E+03 7.3269446E+03 7.3269446E+03
EXPONENTS  7.3269446E+03 7.3269446E+03 7.3269446E+03 2.1535859E+03 2.1535859E+03
EXPONENTS  2.1535859E+03 2.1535859E+03 2.1535859E+03 2.1535859E+03 8.4694695E+02
EXPONENTS  8.4694695E+02 8.4694695E+02 8.4694695E+02 8.4694695E+02 8.4694695E+02
EXPONENTS  3.7732115E+02 3.7732115E+02 3.7732115E+02 3.7732115E+02 3.7732115E+02
EXPONENTS  3.7732115E+02 1.8250889E+02 1.8250889E+02 1.8250889E+02 1.8250889E+02
EXPONENTS  1.8250889E+02 1.8250889E+02 9.2556327E+01 9.2556327E+01 9.2556327E+01
EXPONENTS  9.2556327E+01 9.2556327E+01 9.2556327E+01 4.7959624E+01 4.7959624E+01
EXPONENTS  4.7959624E+01 4.7959624E+01 4.7959624E+01 4.7959624E+01 2.4961082E+01
EXPONENTS  2.4961082E+01 2.4961082E+01 2.4961082E+01 2.4961082E+01 2.4961082E+01
EXPONENTS  4.8000000E+01 4.8000000E+01 4.8000000E+01 4.8000000E+01 4.8000000E+01
EXPONENTS  4.8000000E+01 3.7197014E+02 3.7197014E+02 3.7197014E+02 3.7197014E+02
EXPONENTS  3.7197014E+02 3.7197014E+02 1.5139951E+02 1.5139951E+02 1.5139951E+02
EXPONENTS  1.5139951E+02 1.5139951E+02 1.5139951E+02 2.9476024E+01 2.9476024E+01
EXPONENTS  2.9476024E+01 2.9476024E+01 2.9476024E+01 2.9476024E+01 1.2750794E+01
EXPONENTS  1.2750794E+01 1.2750794E+01 1.2750794E+01 1.2750794E+01 1.2750794E+01
EXPONENTS  1.8161435E+01 1.8161435E+01 1.8161435E+01 1.8161435E+01 1.8161435E+01
EXPONENTS  1.8161435E+01 6.6913896E+00 6.6913896E+00 6.6913896E+00 6.6913896E+00
EXPONENTS  6.6913896E+00 6.6913896E+00 3.3102175E+00 3.3102175E+00 3.3102175E+00
EXPONENTS  3.3102175E+00 3.3102175E+00 3.3102175E+00 1.5889448E+00 1.5889448E+00
EXPONENTS  1.5889448E+00 1.5889448E+00 1.5889448E+00 1.5889448E+00 7.1059152E-01
EXPONENTS  7.1059152E-01 7.1059152E-01 7.1059152E-01 7.1059152E-01 7.1059152E-01
EXPONENTS  2.9551532E-01 2.9551532E-01 2.9551532E-01 2.9551532E-01 2.9551532E-01
EXPONENTS  2.9551532E-01 1.0296879E-01 1.0296879E-01 1.0296879E-01 1.0296879E-01
EXPONENTS  1.0296879E-01 1.0296879E-01 5.6674560E+02 5.6674560E+02 5.6674560E+02
EXPONENTS  5.6674560E+02 5.6674560E+02 5.6674560E+02 5.6674560E+02 5.6674560E+02
EXPONENTS  5.6674560E+02 5.6674560E+02 1.9545025E+02 1.9545025E+02 1.9545025E+02
EXPONENTS  1.9545025E+02 1.9545025E+02 1.9545025E+02 1.9545025E+02 1.9545025E+02
EXPONENTS  1.9545025E+02 1.9545025E+02 8.4412401E+01 8.4412401E+01 8.4412401E+01
EXPONENTS  8.4412401E+01 8.4412401E+01 8.4412401E+01 8.4412401E+01 8.4412401E+01
EXPONENTS  8.4412401E+01 8.4412401E+01 3.9650704E+01 3.9650704E+01 3.9650704E+01
EXPONENTS  3.9650704E+01 3.9650704E+01 3.9650704E+01 3.9650704E+01 3.9650704E+01
EXPONENTS  3.9650704E+01 3.9650704E+01 1.9615186E+01 1.9615186E+01 1.9615186E+01
EXPONENTS  1.9615186E+01 1.9615186E+01 1.9615186E+01 1.9615186E+01 1.9615186E+01
EXPONENTS  1.9615186E+01 1.9615186E+01 9.7426394E+00 9.7426394E+00 9.7426394E+00
EXPONENTS  9.7426394E+00 9.7426394E+00 9.7426394E+00 9.7426394E+00 9.7426394E+00
EXPONENTS  9.7426394E+00 9.7426394E+00 4.8047965E+00 4.8047965E+00 4.8047965E+00
EXPONENTS  4.8047965E+00 4.8047965E+00 4.8047965E+00 4.8047965E+00 4.8047965E+00
EXPONENTS  4.8047965E+00 4.8047965E+00 9.7000000E+00 9.7000000E+00 9.7000000E+00
EXPONENTS  9.7000000E+00 9.7000000E+00 9.7000000E+00 9.7000000E+00 9.7000000E+00
EXPONENTS  9.7000000E+00 9.7000000E+00 2.3363147E+00 2.3363147E+00 2.3363147E+00
EXPONENTS  2.3363147E+00 2.3363147E+00 2.3363147E+00 2.3363147E+00 2.3363147E+00
EXPONENTS  2.3363147E+00 2.3363147E+00 1.0821089E+00 1.0821089E+00 1.0821089E+00
EXPONENTS  1.0821089E+00 1.0821089E+00 1.0821089E+00 1.0821089E+00 1.0821089E+00
EXPONENTS  1.0821089E+00 1.0821089E+00 4.2630000E-01 4.2630000E-01 4.2630000E-01
EXPONENTS  4.2630000E-01 4.2630000E-01 4.2630000E-01 4.2630000E-01 4.2630000E-01
EXPONENTS  4.2630000E-01 4.2630000E-01 1.6900000E-01 1.6900000E-01 1.6900000E-01
EXPONENTS  1.6900000E-01 1.6900000E-01 1.6900000E-01 1.6900000E-01 1.6900000E-01
EXPONENTS  1.6900000E-01 1.6900000E-01 3.6930000E-01 3.6930000E-01 3.6930000E-01
EXPONENTS  3.6930000E-01 3.6930000E-01 3.6930000E-01 3.6930000E-01 3.6930000E-01
EXPONENTS  3.6930000E-01 3.6930000E-01 3.6930000E-01 3.6930000E-01 3.6930000E-01
EXPONENTS  3.6930000E-01 3.6930000E-01
MO    1                     OCC NO =   1.00000000 ORB. ENERGY = -3142.06997717
  2.68380102E+02  2.70903450E+02  2.34884080E+02  1.93870252E+02  1.63752485E+02
  1.42700364E+02  1.25315352E+02  1.14564921E+02  1.04570998E+02  9.03673773E+01
  7.44198630E+01  4.84952886E+01  2.81438752E-02  6.20656770E-02  1.07489377E-01
  1.31871535E-01  1.81049181E+01  1.32794298E+00  4.52182875E-01 -2.24969451E-01
  1.06781517E-01 -4.45480253E-02  1.51387494E-02 -5.52020460E-03  1.77990455E-03
 -8.77487793E-04  2.62530801E-04 -8.95246285E-05  1.50639243E-05 -1.94299009E-06
  0.00000000E+00  0.00000000E+00  0.00000000E+00  0.00000000E+00  0.00000000E+00
  0.00000000E+00  0.00000000E+00  0.00000000E+00  0.00000000E+00  0.00000000E+00
  0.00000000E+00  0.00000000E+00  0.00000000E+00  0.00000000E+00  0.00000000E+00
  0.00000000E+00  0.00000000E+00  0.00000000E+00  0.00000000E+00  0.00000000E+00
  0.00000000E+00  0.00000000E+00  0.00000000E+00  0.00000000E+00  0.00000000E+00
  0.00000000E+00  0.00000000E+00  0.00000000E+00  0.00000000E+00  0.00000000E+00
  0.00000000E+00  0.00000000E+00  0.00000000E+00  0.00000000E+00  0.00000000E+00
  0.00000000E+00  0.00000000E+00  0.00000000E+00  0.00000000E+00  0.00000000E+00
  0.00000000E+00  0.00000000E+00  0.00000000E+00  0.00000000E+00  0.00000000E+00
  0.00000000E+00  0.00000000E+00  0.00000000E+00  0.00000000E+00  0.00000000E+00
  0.00000000E+00  0.00000000E+00  0.00000000E+00  0.00000000E+00  0.00000000E+00
  0.00000000E+00  0.00000000E+00  0.00000000E+00  0.00000000E+00  0.00000000E+00
  0.00000000E+00  0.00000000E+00  0.00000000E+00  0.00000000E+00  0.00000000E+00
  0.00000000E+00  0.00000000E+00  0.00000000E+00  0.00000000E+00  0.00000000E+00
  0.00000000E+00  0.00000000E+00  0.00000000E+00  0.00000000E+00  0.00000000E+00
  0.00000000E+00  0.00000000E+00  0.00000000E+00  0.00000000E+00  0.00000000E+00
  0.00000000E+00  0.00000000E+00  0.00000000E+00  0.00000000E+00  0.00000000E+00
  0.00000000E+00  0.00000000E+00  0.00000000E+00  0.00000000E+00  0.00000000E+00
  0.00000000E+00  0.00000000E+00  0.00000000E+00  0.00000000E+00  0.00000000E+00
  0.00000000E+00  0.00000000E+00  0.00000000E+00  0.00000000E+00  0.00000000E+00
  0.00000000E+00  0.00000000E+00  0.00000000E+00  0.00000000E+00  0.00000000E+00
  0.00000000E+00  0.00000000E+00  0.00000000E+00  0.00000000E+00  0.00000000E+00
  0.00000000E+00  0.00000000E+00  0.00000000E+00  0.00000000E+00  0.00000000E+00
  0.00000000E+00  0.00000000E+00  0.00000000E+00  0.00000000E+00  0.00000000E+00
  0.00000000E+00  0.00000000E+00  0.00000000E+00  0.00000000E+00  0.00000000E+00
  0.00000000E+00  0.00000000E+00  0.00000000E+00  0.00000000E+00  0.00000000E+00
  0.00000000E+00  0.00000000E+00  0.00000000E+00  0.00000000E+00  0.00000000E+00
  0.00000000E+00  0.00000000E+00  0.00000000E+00  0.00000000E+00  0.00000000E+00
  0.00000000E+00  0.00000000E+00  0.00000000E+00  0.00000000E+00  0.00000000E+00
  0.00000000E+00  0.00000000E+00  0.00000000E+00  0.00000000E+00  0.00000000E+00
  0.00000000E+00  0.00000000E+00  0.00000000E+00  0.00000000E+00  0.00000000E+00
  0.00000000E+00  0.00000000E+00  0.00000000E+00  0.00000000E+00  0.00000000E+00
  0.00000000E+00  0.00000000E+00  0.00000000E+00  0.00000000E+00  0.00000000E+00
  0.00000000E+00  0.00000000E+00  0.00000000E+00  0.00000000E+00  0.00000000E+00
  0.00000000E+00  0.00000000E+00  0.00000000E+00  0.00000000E+00  0.00000000E+00
  0.00000000E+00  0.00000000E+00  0.00000000E+00  0.00000000E+00  0.00000000E+00
  0.00000000E+00  0.00000000E+00  0.00000000E+00  0.00000000E+00  0.00000000E+00
  0.00000000E+00  0.00000000E+00  0.00000000E+00  0.00000000E+00  0.00000000E+00
  0.00000000E+00  0.00000000E+00  0.00000000E+00  0.00000000E+00  0.00000000E+00
  0.00000000E+00  0.00000000E+00  0.00000000E+00  0.00000000E+00  0.00000000E+00
  0.00000000E+00  0.00000000E+00  0.00000000E+00  0.00000000E+00  0.00000000E+00
  0.00000000E+00  0.00000000E+00  0.00000000E+00  0.00000000E+00  0.00000000E+00
  0.00000000E+00  0.00000000E+00  0.00000000E+00  0.00000000E+00  0.00000000E+00
  0.00000000E+00  0.00000000E+00  0.00000000E+00  0.00000000E+00  0.00000000E+00
  0.00000000E+00  0.00000000E+00  0.00000000E+00  0.00000000E+00  0.00000000E+00
  0.00000000E+00  0.00000000E+00  0.00000000E+00  0.00000000E+00  0.00000000E+00
  0.00000000E+00  0.00000000E+00  0.00000000E+00  0.00000000E+00  0.00000000E+00
  0.00000000E+00  0.00000000E+00  0.00000000E+00  0.00000000E+00  0.00000000E+00
  0.00000000E+00  0.00000000E+00  0.00000000E+00  0.00000000E+00  0.00000000E+00
  0.00000000E+00  0.00000000E+00  0.00000000E+00  0.00000000E+00  0.00000000E+00
  0.00000000E+00  0.00000000E+00  0.00000000E+00  0.00000000E+00  0.00000000E+00
  0.00000000E+00  0.00000000E+00  0.00000000E+00  0.00000000E+00  0.00000000E+00
  0.00000000E+00  0.00000000E+00  0.00000000E+00  0.00000000E+00  0.00000000E+00
  0.00000000E+00  0.00000000E+00  0.00000000E+00  0.00000000E+00  0.00000000E+00
  0.00000000E+00  0.00000000E+00  0.00000000E+00  0.00000000E+00  0.00000000E+00
  0.00000000E+00  0.00000000E+00  0.00000000E+00  0.00000000E+00  0.00000000E+00
  0.00000000E+00  0.00000000E+00  0.00000000E+00  0.00000000E+00  0.00000000E+00
  0.00000000E+00  0.00000000E+00  0.00000000E+00  0.00000000E+00  0.00000000E+00
  0.00000000E+00  0.00000000E+00  0.00000000E+00  0.00000000E+00  0.00000000E+00
  0.00000000E+00  0.00000000E+00  0.00000000E+00  0.00000000E+00  0.00000000E+00
  0.00000000E+00  0.00000000E+00  0.00000000E+00  0.00000000E+00  0.00000000E+00
  0.00000000E+00  0.00000000E+00  0.00000000E+00  0.00000000E+00  0.00000000E+00
  0.00000000E+00  0.00000000E+00  0.00000000E+00  0.00000000E+00  0.00000000E+00
  0.00000000E+00  0.00000000E+00  0.00000000E+00  0.00000000E+00  0.00000000E+00
  0.00000000E+00  0.00000000E+00  0.00000000E+00  0.00000000E+00  0.00000000E+00
  0.00000000E+00  0.00000000E+00  0.00000000E+00  0.00000000E+00  0.00000000E+00
  0.00000000E+00  0.00000000E+00  0.00000000E+00  0.00000000E+00  0.00000000E+00
  0.00000000E+00  0.00000000E+00  0.00000000E+00  0.00000000E+00  0.00000000E+00
  0.00000000E+00  0.00000000E+00  0.00000000E+00  0.00000000E+00  0.00000000E+00
  0.00000000E+00  0.00000000E+00  0.00000000E+00  0.00000000E+00  0.00000000E+00
  0.00000000E+00  0.00000000E+00  0.00000000E+00  0.00000000E+00  0.00000000E+00
  0.00000000E+00  0.00000000E+00
MO    2                     OCC NO =   1.00000000 ORB. ENERGY = -560.76251004
 -1.07505805E+02 -1.08516590E+02 -9.40882047E+01 -7.76591756E+01 -6.55948130E+01
 -5.71619031E+01 -5.01979381E+01 -4.58916064E+01 -4.18883114E+01 -3.61987254E+01
 -2.98105828E+01 -1.94259000E+01 -2.71365771E+00 -5.98442829E+00 -1.03642223E+01
 -1.27151718E+01 -1.06372502E+01  1.56909262E+01  1.86267676E+01  6.31569471E+00
  3.91718109E-01  9.62171089E-03 -4.49518353E-03  1.71689168E-03 -5.97956705E-04
  3.02300934E-04 -9.11811456E-05  3.12931880E-05 -5.28759273E-06  6.82873100E-07
  0.00000000E+00  0.00000000E+00  0.00000000E+00  0.00000000E+00  0.00000000E+00
  0.00000000E+00  0.00000000E+00  0.00000000E+00  0.00000000E+00  0.00000000E+00
  0.00000000E+00  0.00000000E+00  0.00000000E+00  0.00000000E+00  0.00000000E+00
  0.00000000E+00  0.00000000E+00  0.00000000E+00  0.00000000E+00  0.00000000E+00
  0.00000000E+00  0.00000000E+00  0.00000000E+00  0.00000000E+00  0.00000000E+00
  0.00000000E+00  0.00000000E+00  0.00000000E+00  0.00000000E+00  0.00000000E+00
  0.00000000E+00  0.00000000E+00  0.00000000E+00  0.00000000E+00  0.00000000E+00
  0.00000000E+00  0.00000000E+00  0.00000000E+00  0.00000000E+00  0.00000000E+00
  0.00000000E+00  0.00000000E+00  0.00000000E+00  0.00000000E+00  0.00000000E+00
  0.00000000E+00  0.00000000E+00  0.00000000E+00  0.00000000E+00  0.00000000E+00
  0.00000000E+00  0.00000000E+00  0.00000000E+00  0.00000000E+00  0.00000000E+00
  0.00000000E+00  0.00000000E+00  0.00000000E+00  0.00000000E+00  0.00000000E+00
  0.00000000E+00  0.00000000E+00  0.00000000E+00  0.00000000E+00  0.00000000E+00
  0.00000000E+00  0.00000000E+00  0.00000000E+00  0.00000000E+00  0.00000000E+00
  0.00000000E+00  0.00000000E+00  0.00000000E+00  0.00000000E+00  0.00000000E+00
  0.00000000E+00  0.00000000E+00  0.00000000E+00  0.00000000E+00  0.00000000E+00
  0.00000000E+00  0.00000000E+00  0.00000000E+00  0.00000000E+00  0.00000000E+00
  0.00000000E+00  0.00000000E+00  0.00000000E+00  0.00000000E+00  0.00000000E+00
  0.00000000E+00  0.00000000E+00  0.00000000E+00  0.00000000E+00  0.00000000E+00
  0.00000000E+00  0.00000000E+00  0.00000000E+00  0.00000000E+00  0.00000000E+00
  0.00000000E+00  0.00000000E+00  0.00000000E+00  0.00000000E+00  0.00000000E+00
  0.00000000E+00  0.00000000E+00  0.00000000E+00  0.00000000E+00  0.00000000E+00
  0.00000000E+00  0.00000000E+00  0.00000000E+00  0.00000000E+00  0.00000000E+00
  0.00000000E+00  0.00000000E+00  0.00000000E+00  0.00000000E+00  0.00000000E+00
  0.00000000E+00  0.00000000E+00  0.00000000E+00  0.00000000E+00  0.00000000E+00
  0.00000000E+00  0.00000000E+00  0.00000000E+00  0.00000000E+00  0.00000000E+00
  0.00000000E+00  0.00000000E+00  0.00000000E+00  0.00000000E+00  0.00000000E+00
  0.00000000E+00  0.00000000E+00  0.00000000E+00  0.00000000E+00  0.00000000E+00
  0.00000000E+00  0.00000000E+00  0.00000000E+00  0.00000000E+00  0.00000000E+00
  0.00000000E+00  0.00000000E+00  0.00000000E+00  0.00000000E+00  0.00000000E+00
  0.00000000E+00  0.00000000E+00  0.00000000E+00  0.00000000E+00  0.00000000E+00
  0.00000000E+00  0.00000000E+00  0.00000000E+00  0.00000000E+00  0.00000000E+00
  0.00000000E+00  0.00000000E+00  0.00000000E+00  0.00000000E+00  0.00000000E+00
  0.00000000E+00  0.00000000E+00  0.00000000E+00  0.00000000E+00  0.00000000E+00
  0.00000000E+00  0.00000000E+00  0.00000000E+00  0.00000000E+00  0.00000000E+00
  0.00000000E+00  0.00000000E+00  0.00000000E+00  0.00000000E+00  0.00000000E+00
  0.00000000E+00  0.00000000E+00  0.00000000E+00  0.00000000E+00  0.00000000E+00
  0.00000000E+00  0.00000000E+00  0.00000000E+00  0.00000000E+00  0.00000000E+00
  0.00000000E+00  0.00000000E+00  0.00000000E+00  0.00000000E+00  0.00000000E+00
  0.00000000E+00  0.00000000E+00  0.00000000E+00  0.00000000E+00  0.00000000E+00
  0.00000000E+00  0.00000000E+00  0.00000000E+00  0.00000000E+00  0.00000000E+00
  0.00000000E+00  0.00000000E+00  0.00000000E+00  0.00000000E+00  0.00000000E+00
  0.00000000E+00  0.00000000E+00  0.00000000E+00  0.00000000E+00  0.00000000E+00
  0.00000000E+00  0.00000000E+00  0.00000000E+00  0.00000000E+00  0.00000000E+00
  0.00000000E+00  0.00000000E+00  0.00000000E+00  0.00000000E+00  0.00000000E+00
  0.00000000E+00  0.00000000E+00  0.00000000E+00  0.00000000E+00  0.00000000E+00
  0.00000000E+00  0.00000000E+00  0.00000000E+00  0.00000000E+00  0.00000000E+00
  0.00000000E+00  0.00000000E+00  0.00000000E+00  0.00000000E+00  0.00000000E+00
  0.00000000E+00  0.00000000E+00  0.00000000E+00  0.00000000E+00  0.00000000E+00
  0.00000000E+00  0.00000000E+00  0.00000000E+00  0.00000000E+00  0.00000000E+00
  0.00000000E+00  0.00000000E+00  0.00000000E+00  0.00000000E+00  0.00000000E+00
  0.00000000E+00  0.00000000E+00  0.00000000E+00  0.00000000E+00  0.00000000E+00
  0.00000000E+00  0.00000000E+00  0.00000000E+00  0.00000000E+00  0.00000000E+00
  0.00000000E+00  0.00000000E+00  0.00000000E+00  0.00000000E+00  0.00000000E+00
  0.00000000E+00  0.00000000E+00  0.00000000E+00  0.00000000E+00  0.00000000E+00
  0.00000000E+00  0.00000000E+00  0.00000000E+00  0.00000000E+00  0.00000000E+00
  0.00000000E+00  0.00000000E+00  0.00000000E+00  0.00000000E+00  0.00000000E+00
  0.00000000E+00  0.00000000E+00  0.00000000E+00  0.00000000E+00  0.00000000E+00
  0.00000000E+00  0.00000000E+00  0.00000000E+00  0.00000000E+00  0.00000000E+00
  0.00000000E+00  0.00000000E+00  0.00000000E+00  0.00000000E+00  0.00000000E+00
  0.00000000E+00  0.00000000E+00  0.00000000E+00  0.00000000E+00  0.00000000E+00
  0.00000000E+00  0.00000000E+00  0.00000000E+00  0.00000000E+00  0.00000000E+00
  0.00000000E+00  0.00000000E+00  0.00000000E+00  0.00000000E+00  0.00000000E+00
  0.00000000E+00  0.00000000E+00  0.00000000E+00  0.00000000E+00  0.00000000E+00
  0.00000000E+00  0.00000000E+00  0.00000000E+00  0.00000000E+00  0.00000000E+00
  0.00000000E+00  0.00000000E+00  0.00000000E+00  0.00000000E+00  0.00000000E+00
  0.00000000E+00  0.00000000E+00  0.00000000E+00  0.00000000E+00  0.00000000E+00
  0.00000000E+00  0.00000000E+00  0.00000000E+00  0.00000000E+00  0.00000000E+00
  0.00000000E+00  0.00000000E+00  0.00000000E+00  0.00000000E+00  0.00000000E+00
  0.00000000E+00  0.00000000E+00  0.00000000E+00  0.00000000E+00  0.00000000E+00
  0.00000000E+00  0.00000000E+00  0.00000000E+00  0.00000000E+00  0.00000000E+00
  0.00000000E+00  0.00000000E+00
MO    3                     OCC NO =   1.00000000 ORB. ENERGY = -134.54047313
  5.16833272E+01  5.21692613E+01  4.52328271E+01  3.73345848E+01  3.15346524E+01
  2.74805380E+01  2.41326175E+01  2.20623520E+01  2.01377713E+01  1.74025075E+01
  1.43314132E+01  9.33898544E+00  1.59318425E+00  3.51344860E+00  6.08481888E+00
  7.46505771E+00  5.54259029E+00 -1.21174129E+01 -1.87771794E+01 -6.31457159E+00
  7.67871042E+00  5.27477304E+00  5.14039749E-01 -3.92778683E-02  1.02094688E-02
 -4.77278494E-03  1.37900825E-03 -4.67721053E-04  7.85643545E-05 -1.01312843E-05
  0.00000000E+00  0.00000000E+00  0.00000000E+00  0.00000000E+00  0.00000000E+00
  0.00000000E+00  0.00000000E+00  0.00000000E+00  0.00000000E+00  0.00000000E+00
  0.00000000E+00  0.00000000E+00  0.00000000E+00  0.00000000E+00  0.00000000E+00
  0.00000000E+00  0.00000000E+00  0.00000000E+00  0.00000000E+00  0.00000000E+00
  0.00000000E+00  0.00000000E+00  0.00000000E+00  0.00000000E+00  0.00000000E+00
  0.00000000E+00  0.00000000E+00  0.00000000E+00  0.00000000E+00  0.00000000E+00
  0.00000000E+00  0.00000000E+00  0.00000000E+00  0.00000000E+00  0.00000000E+00
  0.00000000E+00  0.00000000E+00  0.00000000E+00  0.00000000E+00  0.00000000E+00
  0.00000000E+00  0.00000000E+00  0.00000000E+00  0.00000000E+00  0.00000000E+00
  0.00000000E+00  0.00000000E+00  0.00000000E+00  0.00000000E+00  0.00000000E+00
  0.00000000E+00  0.00000000E+00  0.00000000E+00  0.00000000E+00  0.00000000E+00
  0.00000000E+00  0.00000000E+00  0.00000000E+00  0.00000000E+00  0.00000000E+00
  0.00000000E+00  0.00000000E+00  0.00000000E+00  0.00000000E+00  0.00000000E+00
  0.00000000E+00  0.00000000E+00  0.00000000E+00  0.00000000E+00  0.00000000E+00
  0.00000000E+00  0.00000000E+00  0.00000000E+00  0.00000000E+00  0.00000000E+00
  0.00000000E+00  0.00000000E+00  0.00000000E+00  0.00000000E+00  0.00000000E+00
  0.00000000E+00  0.00000000E+00  0.00000000E+00  0.00000000E+00  0.00000000E+00
  0.00000000E+00  0.00000000E+00  0.00000000E+00  0.00000000E+00  0.00000000E+00
  0.00000000E+00  0.00000000E+00  0.00000000E+00  0.00000000E+00  0.00000000E+00
  0.00000000E+00  0.00000000E+00  0.00000000E+00  0.00000000E+00  0.00000000E+00
  0.00000000E+00  0.00000000E+00  0.00000000E+00  0.00000000E+00  0.00000000E+00
  0.00000000E+00  0.00000000E+00  0.00000000E+00  0.00000000E+00  0.00000000E+00
  0.00000000E+00  0.00000000E+00  0.00000000E+00  0.00000000E+00  0.00000000E+00
  0.00000000E+00  0.00000000E+00  0.00000000E+00  0.00000000E+00  0.00000000E+00
  0.00000000E+00  0.00000000E+00  0.00000000E+00  0.00000000E+00  0.00000000E+00
  0.00000000E+00  0.00000000E+00  0.00000000E+00  0.00000000E+00  0.00000000E+00
  0.00000000E+00  0.00000000E+00  0.00000000E+00  0.00000000E+00  0.00000000E+00
  0.00000000E+00  0.00000000E+00  0.00000000E+00  0.00000000E+00  0.00000000E+00
  0.00000000E+00  0.00000000E+00  0.00000000E+00  0.00000000E+00  0.00000000E+00
  0.00000000E+00  0.00000000E+00  0.00000000E+00  0.00000000E+00  0.00000000E+00
  0.00000000E+00  0.00000000E+00  0.00000000E+00  0.00000000E+00  0.00000000E+00
  0.00000000E+00  0.00000000E+00  0.00000000E+00  0.00000000E+00  0.00000000E+00
  0.00000000E+00  0.00000000E+00  0.00000000E+00  0.00000000E+00  0.00000000E+00
  0.00000000E+00  0.00000000E+00  0.00000000E+00  0.00000000E+00  0.00000000E+00
  0.00000000E+00  0.00000000E+00  0.00000000E+00  0.00000000E+00  0.00000000E+00
  0.00000000E+00  0.00000000E+00  0.00000000E+00  0.00000000E+00  0.00000000E+00
  0.00000000E+00  0.00000000E+00  0.00000000E+00  0.00000000E+00  0.00000000E+00
  0.00000000E+00  0.00000000E+00  0.00000000E+00  0.00000000E+00  0.00000000E+00
  0.00000000E+00  0.00000000E+00  0.00000000E+00  0.00000000E+00  0.00000000E+00
  0.00000000E+00  0.00000000E+00  0.00000000E+00  0.00000000E+00  0.00000000E+00
  0.00000000E+00  0.00000000E+00  0.00000000E+00  0.00000000E+00  0.00000000E+00
  0.00000000E+00  0.00000000E+00  0.00000000E+00  0.00000000E+00  0.00000000E+00
  0.00000000E+00  0.00000000E+00  0.00000000E+00  0.00000000E+00  0.00000000E+00
  0.00000000E+00  0.00000000E+00  0.00000000E+00  0.00000000E+00  0.00000000E+00
  0.00000000E+00  0.00000000E+00  0.00000000E+00  0.00000000E+00  0.00000000E+00
  0.00000000E+00  0.00000000E+00  0.00000000E+00  0.00000000E+00  0.00000000E+00
  0.00000000E+00  0.00000000E+00  0.00000000E+00  0.00000000E+00  0.00000000E+00
  0.00000000E+00  0.00000000E+00  0.00000000E+00  0.00000000E+00  0.00000000E+00
  0.00000000E+00  0.00000000E+00  0.00000000E+00  0.00000000E+00  0.00000000E+00
  0.00000000E+00  0.00000000E+00  0.00000000E+00  0.00000000E+00  0.00000000E+00
  0.00000000E+00  0.00000000E+00  0.00000000E+00  0.00000000E+00  0.00000000E+00
  0.00000000E+00  0.00000000E+00  0.00000000E+00  0.00000000E+00  0.00000000E+00
  0.00000000E+00  0.00000000E+00  0.00000000E+00  0.00000000E+00  0.00000000E+00
  0.00000000E+00  0.00000000E+00  0.00000000E+00  0.00000000E+00  0.00000000E+00
  0.00000000E+00  0.00000000E+00  0.00000000E+00  0.00000000E+00  0.00000000E+00
  0.00000000E+00  0.00000000E+00  0.00000000E+00  0.00000000E+00  0.00000000E+00
  0.00000000E+00  0.00000000E+00  0.00000000E+00  0.00000000E+00  0.00000000E+00
  0.00000000E+00  0.00000000E+00  0.00000000E+00  0.00000000E+00  0.00000000E+00
  0.00000000E+00  0.00000000E+00  0.00000000E+00  0.00000000E+00  0.00000000E+00
  0.00000000E+00  0.00000000E+00  0.00000000E+00  0.00000000E+00  0.00000000E+00
  0.00000000E+00  0.00000000E+00  0.00000000E+00  0.00000000E+00  0.00000000E+00
  0.00000000E+00  0.00000000E+00  0.00000000E+00  0.00000000E+00  0.00000000E+00
  0.00000000E+00  0.00000000E+00  0.00000000E+00  0.00000000E+00  0.00000000E+00
  0.00000000E+00  0.00000000E+00  0.00000000E+00  0.00000000E+00  0.00000000E+00
  0.00000000E+00  0.00000000E+00  0.00000000E+00  0.00000000E+00  0.00000000E+00
  0.00000000E+00  0.00000000E+00  0.00000000E+00  0.00000000E+00  0.00000000E+00
  0.00000000E+00  0.00000000E+00  0.00000000E+00  0.00000000E+00  0.00000000E+00
  0.00000000E+00  0.00000000E+00  0.00000000E+00  0.00000000E+00  0.00000000E+00
  0.00000000E+00  0.00000000E+00  0.00000000E+00  0.00000000E+00  0.00000000E+00
  0.00000000E+00  0.00000000E+00  0.00000000E+00  0.00000000E+00  0.00000000E+00
  0.00000000E+00  0.00000000E+00  0.00000000E+00  0.00000000E+00  0.00000000E+00
  0.00000000E+00  0.00000000E+00
MO    4                     OCC NO =   1.00000000 ORB. ENERGY = -30.39561695
 -2.61606102E+01 -2.64065760E+01 -2.28955530E+01 -1.88976905E+01 -1.59619319E+01
 -1.39098560E+01 -1.22152352E+01 -1.11673265E+01 -1.01931592E+01 -8.80864755E+00
 -7.25414816E+00 -4.72712518E+00 -8.42990593E-01 -1.85904683E+00 -3.21961825E+00
 -3.94993450E+00 -2.88571071E+00  6.93289858E+00  1.14221607E+01  4.23436905E+00
 -8.12558900E+00 -6.87063129E+00  2.31817562E+00  2.49527995E+00  1.93094974E-01
 -3.30991738E-02  6.99498104E-03 -2.12147375E-03  3.36593304E-04 -4.26743971E-05
  0.00000000E+00  0.00000000E+00  0.00000000E+00  0.00000000E+00  0.00000000E+00
  0.00000000E+00  0.00000000E+00  0.00000000E+00  0.00000000E+00  0.00000000E+00
  0.00000000E+00  0.00000000E+00  0.00000000E+00  0.00000000E+00  0.00000000E+00
  0.00000000E+00  0.00000000E+00  0.00000000E+00  0.00000000E+00  0.00000000E+00
  0.00000000E+00  0.00000000E+00  0.00000000E+00  0.00000000E+00  0.00000000E+00
  0.00000000E+00  0.00000000E+00  0.00000000E+00  0.00000000E+00  0.00000000E+00
  0.00000000E+00  0.00000000E+00  0.00000000E+00  0.00000000E+00  0.00000000E+00
  0.00000000E+00  0.00000000E+00  0.00000000E+00  0.00000000E+00  0.00000000E+00
  0.00000000E+00  0.00000000E+00  0.00000000E+00  0.00000000E+00  0.00000000E+00