atomref-proatoms Tm_q0_mult2_nist x2c-QZVPall
GAUSSIAN             70 MOL ORBITALS    437 PRIMITIVES        1 NUCLEI
  Tm   1    (CENTRE  1)   0.00000000  0.00000000  0.00000000  CHARGE = 69.0
CENTRE ASSIGNMENTS    1  1  1  1  1  1  1  1  1  1  1  1  1  1  1  1  1  1  1  1
CENTRE ASSIGNMENTS    1  1  1  1  1  1  1  1  1  1  1  1  1  1  1  1  1  1  1  1
CENTRE ASSIGNMENTS    1  1  1  1  1  1  1  1  1  1  1  1  1  1  1  1  1  1  1  1
CENTRE ASSIGNMENTS    1  1  1  1  1  1  1  1  1  1  1  1  1  1  1  1  1  1  1  1
CENTRE ASSIGNMENTS    1  1  1  1  1  1  1  1  1  1  1  1  1  1  1  1  1  1  1  1
CENTRE ASSIGNMENTS    1  1  1  1  1  1  1  1  1  1  1  1  1  1  1  1  1  1  1  1
CENTRE ASSIGNMENTS    1  1  1  1  1  1  1  1  1  1  1  1  1  1  1  1  1  1  1  1
CENTRE ASSIGNMENTS    1  1  1  1  1  1  1  1  1  1  1  1  1  1  1  1  1  1  1  1
CENTRE ASSIGNMENTS    1  1  1  1  1  1  1  1  1  1  1  1  1  1  1  1  1  1  1  1
CENTRE ASSIGNMENTS    1  1  1  1  1  1  1  1  1  1  1  1  1  1  1  1  1  1  1  1
CENTRE ASSIGNMENTS    1  1  1  1  1  1  1  1  1  1  1  1  1  1  1  1  1  1  1  1
CENTRE ASSIGNMENTS    1  1  1  1  1  1  1  1  1  1  1  1  1  1  1  1  1  1  1  1
CENTRE ASSIGNMENTS    1  1  1  1  1  1  1  1  1  1  1  1  1  1  1  1  1  1  1  1
CENTRE ASSIGNMENTS    1  1  1  1  1  1  1  1  1  1  1  1  1  1  1  1  1  1  1  1
CENTRE ASSIGNMENTS    1  1  1  1  1  1  1  1  1  1  1  1  1  1  1  1  1  1  1  1
CENTRE ASSIGNMENTS    1  1  1  1  1  1  1  1  1  1  1  1  1  1  1  1  1  1  1  1
CENTRE ASSIGNMENTS    1  1  1  1  1  1  1  1  1  1  1  1  1  1  1  1  1  1  1  1
CENTRE ASSIGNMENTS    1  1  1  1  1  1  1  1  1  1  1  1  1  1  1  1  1  1  1  1
CENTRE ASSIGNMENTS    1  1  1  1  1  1  1  1  1  1  1  1  1  1  1  1  1  1  1  1
CENTRE ASSIGNMENTS    1  1  1  1  1  1  1  1  1  1  1  1  1  1  1  1  1  1  1  1
CENTRE ASSIGNMENTS    1  1  1  1  1  1  1  1  1  1  1  1  1  1  1  1  1  1  1  1
CENTRE ASSIGNMENTS    1  1  1  1  1  1  1  1  1  1  1  1  1  1  1  1  1
TYPE ASSIGNMENTS      1  1  1  1  1  1  1  1  1  1  1  1  1  1  1  1  1  1  1  1
TYPE ASSIGNMENTS      1  1  1  1  1  1  1  1  1  1  2  3  4  2  3  4  2  3  4  2
TYPE ASSIGNMENTS      3  4  2  3  4  2  3  4  2  3  4  2  3  4  2  3  4  2  3  4
TYPE ASSIGNMENTS      2  3  4  2  3  4  2  3  4  2  3  4  2  3  4  2  3  4  2  3
TYPE ASSIGNMENTS      4  2  3  4  2  3  4  2  3  4  2  3  4  2  3  4  2  3  4  2
TYPE ASSIGNMENTS      3  4  2  3  4  2  3  4  2  3  4  2  3  4  2  3  4  2  3  4
TYPE ASSIGNMENTS      2  3  4  2  3  4  2  3  4  2  3  4  5  8  9  6 10  7  5  8
TYPE ASSIGNMENTS      9  6 10  7  5  8  9  6 10  7  5  8  9  6 10  7  5  8  9  6
TYPE ASSIGNMENTS     10  7  5  8  9  6 10  7  5  8  9  6 10  7  5  8  9  6 10  7
TYPE ASSIGNMENTS      5  8  9  6 10  7  5  8  9  6 10  7  5  8  9  6 10  7  5  8
TYPE ASSIGNMENTS      9  6 10  7  5  8  9  6 10  7  5  8  9  6 10  7  5  8  9  6
TYPE ASSIGNMENTS     10  7  5  8  9  6 10  7  5  8  9  6 10  7  5  8  9  6 10  7
TYPE ASSIGNMENTS      5  8  9  6 10  7  5  8  9  6 10  7 11 14 15 17 20 18 12 16
TYPE ASSIGNMENTS     19 13 11 14 15 17 20 18 12 16 19 13 11 14 15 17 20 18 12 16
TYPE ASSIGNMENTS     19 13 11 14 15 17 20 18 12 16 19 13 11 14 15 17 20 18 12 16
TYPE ASSIGNMENTS     19 13 11 14 15 17 20 18 12 16 19 13 11 14 15 17 20 18 12 16
TYPE ASSIGNMENTS     19 13 11 14 15 17 20 18 12 16 19 13 11 14 15 17 20 18 12 16
TYPE ASSIGNMENTS     19 13 11 14 15 17 20 18 12 16 19 13 11 14 15 17 20 18 12 16
TYPE ASSIGNMENTS     19 13 21 24 25 30 33 31 26 34 35 28 22 27 32 29 23 21 24 25
TYPE ASSIGNMENTS     30 33 31 26 34 35 28 22 27 32 29 23 21 24 25 30 33 31 26 34
TYPE ASSIGNMENTS     35 28 22 27 32 29 23 21 24 25 30 33 31 26 34 35 28 22 27 32
TYPE ASSIGNMENTS     29 23 21 24 25 30 33 31 26 34 35 28 22 27 32 29 23
EXPONENTS  7.3286461E+07 1.9973882E+07 5.9319016E+06 1.8305254E+06 6.0930188E+05
EXPONENTS  2.1441037E+05 8.0402167E+04 3.2053174E+04 1.3492763E+04 6.1235970E+03
EXPONENTS  2.8417653E+03 1.1979225E+03 6.0644440E+04 1.4385695E+04 4.4488711E+03
EXPONENTS  1.6526054E+03 6.4511548E+02 4.3240378E+02 1.5939647E+02 8.0019161E+01
EXPONENTS  4.2911933E+01 2.1838664E+01 1.1335818E+01 5.5656566E+00 2.7622411E+00
EXPONENTS  1.2363115E+00 5.7885905E-01 2.4983214E-01 8.6270303E-02 3.2137695E-02
EXPONENTS  2.2000000E+02 2.2000000E+02 2.2000000E+02 5.7183697E+06 5.7183697E+06
EXPONENTS  5.7183697E+06 1.5322756E+06 1.5322756E+06 1.5322756E+06 4.3809264E+05
EXPONENTS  4.3809264E+05 4.3809264E+05 1.3364707E+05 1.3364707E+05 1.3364707E+05
EXPONENTS  4.3502815E+04 4.3502815E+04 4.3502815E+04 1.5109138E+04 1.5109138E+04
EXPONENTS  1.5109138E+04 5.5992060E+03 5.5992060E+03 5.5992060E+03 2.2136685E+03
EXPONENTS  2.2136685E+03 2.2136685E+03 9.1665825E+02 9.1665825E+02 9.1665825E+02
EXPONENTS  4.0842837E+02 4.0842837E+02 4.0842837E+02 1.9460477E+02 1.9460477E+02
EXPONENTS  1.9460477E+02 9.6994969E+01 9.6994969E+01 9.6994969E+01 4.8272952E+01
EXPONENTS  4.8272952E+01 4.8272952E+01 1.4806161E+03 1.4806161E+03 1.4806161E+03
EXPONENTS  5.1163936E+02 5.1163936E+02 5.1163936E+02 2.2637135E+02 2.2637135E+02
EXPONENTS  2.2637135E+02 5.6452100E+01 5.6452100E+01 5.6452100E+01 2.9344740E+01
EXPONENTS  2.9344740E+01 2.9344740E+01 1.5086858E+01 1.5086858E+01 1.5086858E+01
EXPONENTS  6.6961986E+00 6.6961986E+00 6.6961986E+00 8.0684536E+01 8.0684536E+01
EXPONENTS  8.0684536E+01 3.0367510E+01 3.0367510E+01 3.0367510E+01 9.0651768E+00
EXPONENTS  9.0651768E+00 9.0651768E+00 4.8810753E+00 4.8810753E+00 4.8810753E+00
EXPONENTS  2.4361656E+00 2.4361656E+00 2.4361656E+00 4.4554632E+00 4.4554632E+00
EXPONENTS  4.4554632E+00 1.4435284E+00 1.4435284E+00 1.4435284E+00 7.7436548E-01
EXPONENTS  7.7436548E-01 7.7436548E-01 8.9320788E-01 8.9320788E-01 8.9320788E-01
EXPONENTS  3.6239882E-01 3.6239882E-01 3.6239882E-01 1.5499887E-01 1.5499887E-01
EXPONENTS  1.5499887E-01 8.1516129E-02 8.1516129E-02 8.1516129E-02 2.4751478E-02
EXPONENTS  2.4751478E-02 2.4751478E-02 5.1192956E+03 5.1192956E+03 5.1192956E+03
EXPONENTS  5.1192956E+03 5.1192956E+03 5.1192956E+03 1.4682734E+03 1.4682734E+03
EXPONENTS  1.4682734E+03 1.4682734E+03 1.4682734E+03 1.4682734E+03 5.6986618E+02
EXPONENTS  5.6986618E+02 5.6986618E+02 5.6986618E+02 5.6986618E+02 5.6986618E+02
EXPONENTS  2.5200788E+02 2.5200788E+02 2.5200788E+02 2.5200788E+02 2.5200788E+02
EXPONENTS  2.5200788E+02 1.2117416E+02 1.2117416E+02 1.2117416E+02 1.2117416E+02
EXPONENTS  1.2117416E+02 1.2117416E+02 6.0698215E+01 6.0698215E+01 6.0698215E+01
EXPONENTS  6.0698215E+01 6.0698215E+01 6.0698215E+01 3.0656031E+01 3.0656031E+01
EXPONENTS  3.0656031E+01 3.0656031E+01 3.0656031E+01 3.0656031E+01 1.5485743E+01
EXPONENTS  1.5485743E+01 1.5485743E+01 1.5485743E+01 1.5485743E+01 1.5485743E+01
EXPONENTS  3.1000000E+01 3.1000000E+01 3.1000000E+01 3.1000000E+01 3.1000000E+01
EXPONENTS  3.1000000E+01 2.6586204E+02 2.6586204E+02 2.6586204E+02 2.6586204E+02
EXPONENTS  2.6586204E+02 2.6586204E+02 9.6423747E+01 9.6423747E+01 9.6423747E+01
EXPONENTS  9.6423747E+01 9.6423747E+01 9.6423747E+01 1.9406934E+01 1.9406934E+01
EXPONENTS  1.9406934E+01 1.9406934E+01 1.9406934E+01 1.9406934E+01 7.3314319E+00
EXPONENTS  7.3314319E+00 7.3314319E+00 7.3314319E+00 7.3314319E+00 7.3314319E+00
EXPONENTS  1.1464309E+01 1.1464309E+01 1.1464309E+01 1.1464309E+01 1.1464309E+01
EXPONENTS  1.1464309E+01 4.1249873E+00 4.1249873E+00 4.1249873E+00 4.1249873E+00
EXPONENTS  4.1249873E+00 4.1249873E+00 2.0768571E+00 2.0768571E+00 2.0768571E+00
EXPONENTS  2.0768571E+00 2.0768571E+00 2.0768571E+00 9.0149422E-01 9.0149422E-01
EXPONENTS  9.0149422E-01 9.0149422E-01 9.0149422E-01 9.0149422E-01 3.6591689E-01
EXPONENTS  3.6591689E-01 3.6591689E-01 3.6591689E-01 3.6591689E-01 3.6591689E-01
EXPONENTS  1.4160610E-01 1.4160610E-01 1.4160610E-01 1.4160610E-01 1.4160610E-01
EXPONENTS  1.4160610E-01 5.1091657E-02 5.1091657E-02 5.1091657E-02 5.1091657E-02
EXPONENTS  5.1091657E-02 5.1091657E-02 2.6077542E+02 2.6077542E+02 2.6077542E+02
EXPONENTS  2.6077542E+02 2.6077542E+02 2.6077542E+02 2.6077542E+02 2.6077542E+02
EXPONENTS  2.6077542E+02 2.6077542E+02 1.0403396E+02 1.0403396E+02 1.0403396E+02
EXPONENTS  1.0403396E+02 1.0403396E+02 1.0403396E+02 1.0403396E+02 1.0403396E+02
EXPONENTS  1.0403396E+02 1.0403396E+02 5.2700041E+01 5.2700041E+01 5.2700041E+01
EXPONENTS  5.2700041E+01 5.2700041E+01 5.2700041E+01 5.2700041E+01 5.2700041E+01
EXPONENTS  5.2700041E+01 5.2700041E+01 2.6670645E+01 2.6670645E+01 2.6670645E+01
EXPONENTS  2.6670645E+01 2.6670645E+01 2.6670645E+01 2.6670645E+01 2.6670645E+01
EXPONENTS  2.6670645E+01 2.6670645E+01 1.3426044E+01 1.3426044E+01 1.3426044E+01
EXPONENTS  1.3426044E+01 1.3426044E+01 1.3426044E+01 1.3426044E+01 1.3426044E+01
EXPONENTS  1.3426044E+01 1.3426044E+01 6.7563217E+00 6.7563217E+00 6.7563217E+00
EXPONENTS  6.7563217E+00 6.7563217E+00 6.7563217E+00 6.7563217E+00 6.7563217E+00
EXPONENTS  6.7563217E+00 6.7563217E+00 3.3631122E+00 3.3631122E+00 3.3631122E+00
EXPONENTS  3.3631122E+00 3.3631122E+00 3.3631122E+00 3.3631122E+00 3.3631122E+00
EXPONENTS  3.3631122E+00 3.3631122E+00 1.6190052E+00 1.6190052E+00 1.6190052E+00
EXPONENTS  1.6190052E+00 1.6190052E+00 1.6190052E+00 1.6190052E+00 1.6190052E+00
EXPONENTS  1.6190052E+00 1.6190052E+00 7.3585157E-01 7.3585157E-01 7.3585157E-01
EXPONENTS  7.3585157E-01 7.3585157E-01 7.3585157E-01 7.3585157E-01 7.3585157E-01
EXPONENTS  7.3585157E-01 7.3585157E-01 2.9624075E-01 2.9624075E-01 2.9624075E-01
EXPONENTS  2.9624075E-01 2.9624075E-01 2.9624075E-01 2.9624075E-01 2.9624075E-01
EXPONENTS  2.9624075E-01 2.9624075E-01 9.8000000E-02 9.8000000E-02 9.8000000E-02
EXPONENTS  9.8000000E-02 9.8000000E-02 9.8000000E-02 9.8000000E-02 9.8000000E-02
EXPONENTS  9.8000000E-02 9.8000000E-02 2.2646900E+01 2.2646900E+01 2.2646900E+01
EXPONENTS  2.2646900E+01 2.2646900E+01 2.2646900E+01 2.2646900E+01 2.2646900E+01
EXPONENTS  2.2646900E+01 2.2646900E+01 2.2646900E+01 2.2646900E+01 2.2646900E+01
EXPONENTS  2.2646900E+01 2.2646900E+01 1.0346700E+01 1.0346700E+01 1.0346700E+01
EXPONENTS  1.0346700E+01 1.0346700E+01 1.0346700E+01 1.0346700E+01 1.0346700E+01
EXPONENTS  1.0346700E+01 1.0346700E+01 1.0346700E+01 1.0346700E+01 1.0346700E+01
EXPONENTS  1.0346700E+01 1.0346700E+01 4.7136000E+00 4.7136000E+00 4.7136000E+00
EXPONENTS  4.7136000E+00 4.7136000E+00 4.7136000E+00 4.7136000E+00 4.7136000E+00
EXPONENTS  4.7136000E+00 4.7136000E+00 4.7136000E+00 4.7136000E+00 4.7136000E+00
EXPONENTS  4.7136000E+00 4.7136000E+00 2.0773000E+00 2.0773000E+00 2.0773000E+00
EXPONENTS  2.0773000E+00 2.0773000E+00 2.0773000E+00 2.0773000E+00 2.0773000E+00
EXPONENTS  2.0773000E+00 2.0773000E+00 2.0773000E+00 2.0773000E+00 2.0773000E+00
EXPONENTS  2.0773000E+00 2.0773000E+00 5.0661000E-01 5.0661000E-01 5.0661000E-01
EXPONENTS  5.0661000E-01 5.0661000E-01 5.0661000E-01 5.0661000E-01 5.0661000E-01
EXPONENTS  5.0661000E-01 5.0661000E-01 5.0661000E-01 5.0661000E-01 5.0661000E-01
EXPONENTS  5.0661000E-01 5.0661000E-01
MO    1                     OCC NO =   1.00000000 ORB. ENERGY = -2178.05216749
  1.32072185E+02  1.34288018E+02  1.20159569E+02  1.02575177E+02  8.91822143E+01
  8.09859495E+01  7.36694410E+01  7.14216830E+01  6.83730225E+01  6.09594432E+01
  5.64926007E+01  3.76675618E+01  2.34347094E+00  5.30581297E+00  1.15884298E+01
  1.84106710E+01  1.49457058E+01  8.75422269E+00  1.11211035E+00 -3.71062758E-01
  1.69784497E-01 -6.73372105E-02  2.60418085E-02 -8.81485776E-03  2.86787962E-03
 -7.99217967E-04  2.34046382E-04 -4.93874809E-05  7.40029528E-06 -1.02153746E-06
  0.00000000E+00  0.00000000E+00  0.00000000E+00  0.00000000E+00  0.00000000E+00
  0.00000000E+00  0.00000000E+00  0.00000000E+00  0.00000000E+00  0.00000000E+00
  0.00000000E+00  0.00000000E+00  0.00000000E+00  0.00000000E+00  0.00000000E+00
  0.00000000E+00  0.00000000E+00  0.00000000E+00  0.00000000E+00  0.00000000E+00
  0.00000000E+00  0.00000000E+00  0.00000000E+00  0.00000000E+00  0.00000000E+00
  0.00000000E+00  0.00000000E+00  0.00000000E+00  0.00000000E+00  0.00000000E+00
  0.00000000E+00  0.00000000E+00  0.00000000E+00  0.00000000E+00  0.00000000E+00
  0.00000000E+00  0.00000000E+00  0.00000000E+00  0.00000000E+00  0.00000000E+00
  0.00000000E+00  0.00000000E+00  0.00000000E+00  0.00000000E+00  0.00000000E+00
  0.00000000E+00  0.00000000E+00  0.00000000E+00  0.00000000E+00  0.00000000E+00
  0.00000000E+00  0.00000000E+00  0.00000000E+00  0.00000000E+00  0.00000000E+00
  0.00000000E+00  0.00000000E+00  0.00000000E+00  0.00000000E+00  0.00000000E+00
  0.00000000E+00  0.00000000E+00  0.00000000E+00  0.00000000E+00  0.00000000E+00
  0.00000000E+00  0.00000000E+00  0.00000000E+00  0.00000000E+00  0.00000000E+00
  0.00000000E+00  0.00000000E+00  0.00000000E+00  0.00000000E+00  0.00000000E+00
  0.00000000E+00  0.00000000E+00  0.00000000E+00  0.00000000E+00  0.00000000E+00
  0.00000000E+00  0.00000000E+00  0.00000000E+00  0.00000000E+00  0.00000000E+00
  0.00000000E+00  0.00000000E+00  0.00000000E+00  0.00000000E+00  0.00000000E+00
  0.00000000E+00  0.00000000E+00  0.00000000E+00  0.00000000E+00  0.00000000E+00
  0.00000000E+00  0.00000000E+00  0.00000000E+00  0.00000000E+00  0.00000000E+00
  0.00000000E+00  0.00000000E+00  0.00000000E+00  0.00000000E+00  0.00000000E+00
  0.00000000E+00  0.00000000E+00  0.00000000E+00  0.00000000E+00  0.00000000E+00
  0.00000000E+00  0.00000000E+00  0.00000000E+00  0.00000000E+00  0.00000000E+00
  0.00000000E+00  0.00000000E+00  0.00000000E+00  0.00000000E+00  0.00000000E+00
  0.00000000E+00  0.00000000E+00  0.00000000E+00  0.00000000E+00  0.00000000E+00
  0.00000000E+00  0.00000000E+00  0.00000000E+00  0.00000000E+00  0.00000000E+00
  0.00000000E+00  0.00000000E+00  0.00000000E+00  0.00000000E+00  0.00000000E+00
  0.00000000E+00  0.00000000E+00  0.00000000E+00  0.00000000E+00  0.00000000E+00
  0.00000000E+00  0.00000000E+00  0.00000000E+00  0.00000000E+00  0.00000000E+00
  0.00000000E+00  0.00000000E+00  0.00000000E+00  0.00000000E+00  0.00000000E+00
  0.00000000E+00  0.00000000E+00  0.00000000E+00  0.00000000E+00  0.00000000E+00
  0.00000000E+00  0.00000000E+00  0.00000000E+00  0.00000000E+00  0.00000000E+00
  0.00000000E+00  0.00000000E+00  0.00000000E+00  0.00000000E+00  0.00000000E+00
  0.00000000E+00  0.00000000E+00  0.00000000E+00  0.00000000E+00  0.00000000E+00
  0.00000000E+00  0.00000000E+00  0.00000000E+00  0.00000000E+00  0.00000000E+00
  0.00000000E+00  0.00000000E+00  0.00000000E+00  0.00000000E+00  0.00000000E+00
  0.00000000E+00  0.00000000E+00  0.00000000E+00  0.00000000E+00  0.00000000E+00
  0.00000000E+00  0.00000000E+00  0.00000000E+00  0.00000000E+00  0.00000000E+00
  0.00000000E+00  0.00000000E+00  0.00000000E+00  0.00000000E+00  0.00000000E+00
  0.00000000E+00  0.00000000E+00  0.00000000E+00  0.00000000E+00  0.00000000E+00
  0.00000000E+00  0.00000000E+00  0.00000000E+00  0.00000000E+00  0.00000000E+00
  0.00000000E+00  0.00000000E+00  0.00000000E+00  0.00000000E+00  0.00000000E+00
  0.00000000E+00  0.00000000E+00  0.00000000E+00  0.00000000E+00  0.00000000E+00
  0.00000000E+00  0.00000000E+00  0.00000000E+00  0.00000000E+00  0.00000000E+00
  0.00000000E+00  0.00000000E+00  0.00000000E+00  0.00000000E+00  0.00000000E+00
  0.00000000E+00  0.00000000E+00  0.00000000E+00  0.00000000E+00  0.00000000E+00
  0.00000000E+00  0.00000000E+00  0.00000000E+00  0.00000000E+00  0.00000000E+00
  0.00000000E+00  0.00000000E+00  0.00000000E+00  0.00000000E+00  0.00000000E+00
  0.00000000E+00  0.00000000E+00  0.00000000E+00  0.00000000E+00  0.00000000E+00
  0.00000000E+00  0.00000000E+00  0.00000000E+00  0.00000000E+00  0.00000000E+00
  0.00000000E+00  0.00000000E+00  0.00000000E+00  0.00000000E+00  0.00000000E+00
  0.00000000E+00  0.00000000E+00  0.00000000E+00  0.00000000E+00  0.00000000E+00
  0.00000000E+00  0.00000000E+00  0.00000000E+00  0.00000000E+00  0.00000000E+00
  0.00000000E+00  0.00000000E+00  0.00000000E+00  0.00000000E+00  0.00000000E+00
  0.00000000E+00  0.00000000E+00  0.00000000E+00  0.00000000E+00  0.00000000E+00
  0.00000000E+00  0.00000000E+00  0.00000000E+00  0.00000000E+00  0.00000000E+00
  0.00000000E+00  0.00000000E+00  0.00000000E+00  0.00000000E+00  0.00000000E+00
  0.00000000E+00  0.00000000E+00  0.00000000E+00  0.00000000E+00  0.00000000E+00
  0.00000000E+00  0.00000000E+00  0.00000000E+00  0.00000000E+00  0.00000000E+00
  0.00000000E+00  0.00000000E+00  0.00000000E+00  0.00000000E+00  0.00000000E+00
  0.00000000E+00  0.00000000E+00  0.00000000E+00  0.00000000E+00  0.00000000E+00
  0.00000000E+00  0.00000000E+00  0.00000000E+00  0.00000000E+00  0.00000000E+00
  0.00000000E+00  0.00000000E+00  0.00000000E+00  0.00000000E+00  0.00000000E+00
  0.00000000E+00  0.00000000E+00  0.00000000E+00  0.00000000E+00  0.00000000E+00
  0.00000000E+00  0.00000000E+00  0.00000000E+00  0.00000000E+00  0.00000000E+00
  0.00000000E+00  0.00000000E+00  0.00000000E+00  0.00000000E+00  0.00000000E+00
  0.00000000E+00  0.00000000E+00  0.00000000E+00  0.00000000E+00  0.00000000E+00
  0.00000000E+00  0.00000000E+00  0.00000000E+00  0.00000000E+00  0.00000000E+00
  0.00000000E+00  0.00000000E+00  0.00000000E+00  0.00000000E+00  0.00000000E+00
  0.00000000E+00  0.00000000E+00  0.00000000E+00  0.00000000E+00  0.00000000E+00
  0.00000000E+00  0.00000000E+00  0.00000000E+00  0.00000000E+00  0.00000000E+00
  0.00000000E+00  0.00000000E+00  0.00000000E+00  0.00000000E+00  0.00000000E+00
  0.00000000E+00  0.00000000E+00  0.00000000E+00  0.00000000E+00  0.00000000E+00
  0.00000000E+00  0.00000000E+00  0.00000000E+00  0.00000000E+00  0.00000000E+00
  0.00000000E+00  0.00000000E+00  0.00000000E+00  0.00000000E+00  0.00000000E+00
  0.00000000E+00  0.00000000E+00  0.00000000E+00  0.00000000E+00  0.00000000E+00
  0.00000000E+00  0.00000000E+00  0.00000000E+00  0.00000000E+00  0.00000000E+00
  0.00000000E+00  0.00000000E+00  0.00000000E+00  0.00000000E+00  0.00000000E+00
  0.00000000E+00  0.00000000E+00  0.00000000E+00  0.00000000E+00  0.00000000E+00
  0.00000000E+00  0.00000000E+00  0.00000000E+00  0.00000000E+00  0.00000000E+00
  0.00000000E+00  0.00000000E+00  0.00000000E+00  0.00000000E+00  0.00000000E+00
  0.00000000E+00  0.00000000E+00
MO    2                     OCC NO =   1.00000000 ORB. ENERGY = -368.65941933
 -4.99701904E+01 -5.08085622E+01 -4.54629910E+01 -3.88098460E+01 -3.37425495E+01
 -3.06414506E+01 -2.78732119E+01 -2.70227611E+01 -2.58692848E+01 -2.30643189E+01
 -2.13742661E+01 -1.42517158E+01 -2.07524747E+00 -4.69853275E+00 -1.02620686E+01
 -1.63034659E+01 -1.69428548E+01  3.48163997E+00  1.56415582E+01  9.30274974E+00
  1.60128568E+00  4.99100022E-02 -1.48286188E-03 -1.51256273E-05  8.40547202E-06
 -1.08675440E-05  4.78141556E-06 -9.92592218E-07  1.61668260E-07 -2.27368069E-08
  0.00000000E+00  0.00000000E+00  0.00000000E+00  0.00000000E+00  0.00000000E+00
  0.00000000E+00  0.00000000E+00  0.00000000E+00  0.00000000E+00  0.00000000E+00
  0.00000000E+00  0.00000000E+00  0.00000000E+00  0.00000000E+00  0.00000000E+00
  0.00000000E+00  0.00000000E+00  0.00000000E+00  0.00000000E+00  0.00000000E+00
  0.00000000E+00  0.00000000E+00  0.00000000E+00  0.00000000E+00  0.00000000E+00
  0.00000000E+00  0.00000000E+00  0.00000000E+00  0.00000000E+00  0.00000000E+00
  0.00000000E+00  0.00000000E+00  0.00000000E+00  0.00000000E+00  0.00000000E+00
  0.00000000E+00  0.00000000E+00  0.00000000E+00  0.00000000E+00  0.00000000E+00
  0.00000000E+00  0.00000000E+00  0.00000000E+00  0.00000000E+00  0.00000000E+00
  0.00000000E+00  0.00000000E+00  0.00000000E+00  0.00000000E+00  0.00000000E+00
  0.00000000E+00  0.00000000E+00  0.00000000E+00  0.00000000E+00  0.00000000E+00
  0.00000000E+00  0.00000000E+00  0.00000000E+00  0.00000000E+00  0.00000000E+00
  0.00000000E+00  0.00000000E+00  0.00000000E+00  0.00000000E+00  0.00000000E+00
  0.00000000E+00  0.00000000E+00  0.00000000E+00  0.00000000E+00  0.00000000E+00
  0.00000000E+00  0.00000000E+00  0.00000000E+00  0.00000000E+00  0.00000000E+00
  0.00000000E+00  0.00000000E+00  0.00000000E+00  0.00000000E+00  0.00000000E+00
  0.00000000E+00  0.00000000E+00  0.00000000E+00  0.00000000E+00  0.00000000E+00
  0.00000000E+00  0.00000000E+00  0.00000000E+00  0.00000000E+00  0.00000000E+00
  0.00000000E+00  0.00000000E+00  0.00000000E+00  0.00000000E+00  0.00000000E+00
  0.00000000E+00  0.00000000E+00  0.00000000E+00  0.00000000E+00  0.00000000E+00
  0.00000000E+00  0.00000000E+00  0.00000000E+00  0.00000000E+00  0.00000000E+00
  0.00000000E+00  0.00000000E+00  0.00000000E+00  0.00000000E+00  0.00000000E+00
  0.00000000E+00  0.00000000E+00  0.00000000E+00  0.00000000E+00  0.00000000E+00
  0.00000000E+00  0.00000000E+00  0.00000000E+00  0.00000000E+00  0.00000000E+00
  0.00000000E+00  0.00000000E+00  0.00000000E+00  0.00000000E+00  0.00000000E+00
  0.00000000E+00  0.00000000E+00  0.00000000E+00  0.00000000E+00  0.00000000E+00
  0.00000000E+00  0.00000000E+00  0.00000000E+00  0.00000000E+00  0.00000000E+00
  0.00000000E+00  0.00000000E+00  0.00000000E+00  0.00000000E+00  0.00000000E+00
  0.00000000E+00  0.00000000E+00  0.00000000E+00  0.00000000E+00  0.00000000E+00
  0.00000000E+00  0.00000000E+00  0.00000000E+00  0.00000000E+00  0.00000000E+00
  0.00000000E+00  0.00000000E+00  0.00000000E+00  0.00000000E+00  0.00000000E+00
  0.00000000E+00  0.00000000E+00  0.00000000E+00  0.00000000E+00  0.00000000E+00
  0.00000000E+00  0.00000000E+00  0.00000000E+00  0.00000000E+00  0.00000000E+00
  0.00000000E+00  0.00000000E+00  0.00000000E+00  0.00000000E+00  0.00000000E+00
  0.00000000E+00  0.00000000E+00  0.00000000E+00  0.00000000E+00  0.00000000E+00
  0.00000000E+00  0.00000000E+00  0.00000000E+00  0.00000000E+00  0.00000000E+00
  0.00000000E+00  0.00000000E+00  0.00000000E+00  0.00000000E+00  0.00000000E+00
  0.00000000E+00  0.00000000E+00  0.00000000E+00  0.00000000E+00  0.00000000E+00
  0.00000000E+00  0.00000000E+00  0.00000000E+00  0.00000000E+00  0.00000000E+00
  0.00000000E+00  0.00000000E+00  0.00000000E+00  0.00000000E+00  0.00000000E+00
  0.00000000E+00  0.00000000E+00  0.00000000E+00  0.00000000E+00  0.00000000E+00
  0.00000000E+00  0.00000000E+00  0.00000000E+00  0.00000000E+00  0.00000000E+00
  0.00000000E+00  0.00000000E+00  0.00000000E+00  0.00000000E+00  0.00000000E+00
  0.00000000E+00  0.00000000E+00  0.00000000E+00  0.00000000E+00  0.00000000E+00
  0.00000000E+00  0.00000000E+00  0.00000000E+00  0.00000000E+00  0.00000000E+00
  0.00000000E+00  0.00000000E+00  0.00000000E+00  0.00000000E+00  0.00000000E+00
  0.00000000E+00  0.00000000E+00  0.00000000E+00  0.00000000E+00  0.00000000E+00
  0.00000000E+00  0.00000000E+00  0.00000000E+00  0.00000000E+00  0.00000000E+00
  0.00000000E+00  0.00000000E+00  0.00000000E+00  0.00000000E+00  0.00000000E+00
  0.00000000E+00  0.00000000E+00  0.00000000E+00  0.00000000E+00  0.00000000E+00
  0.00000000E+00  0.00000000E+00  0.00000000E+00  0.00000000E+00  0.00000000E+00
  0.00000000E+00  0.00000000E+00  0.00000000E+00  0.00000000E+00  0.00000000E+00
  0.00000000E+00  0.00000000E+00  0.00000000E+00  0.00000000E+00  0.00000000E+00
  0.00000000E+00  0.00000000E+00  0.00000000E+00  0.00000000E+00  0.00000000E+00
  0.00000000E+00  0.00000000E+00  0.00000000E+00  0.00000000E+00  0.00000000E+00
  0.00000000E+00  0.00000000E+00  0.00000000E+00  0.00000000E+00  0.00000000E+00
  0.00000000E+00  0.00000000E+00  0.00000000E+00  0.00000000E+00  0.00000000E+00
  0.00000000E+00  0.00000000E+00  0.00000000E+00  0.00000000E+00  0.00000000E+00
  0.00000000E+00  0.00000000E+00  0.00000000E+00  0.00000000E+00  0.00000000E+00
  0.00000000E+00  0.00000000E+00  0.00000000E+00  0.00000000E+00  0.00000000E+00
  0.00000000E+00  0.00000000E+00  0.00000000E+00  0.00000000E+00  0.00000000E+00
  0.00000000E+00  0.00000000E+00  0.00000000E+00  0.00000000E+00  0.00000000E+00
  0.00000000E+00  0.00000000E+00  0.00000000E+00  0.00000000E+00  0.00000000E+00
  0.00000000E+00  0.00000000E+00  0.00000000E+00  0.00000000E+00  0.00000000E+00
  0.00000000E+00  0.00000000E+00  0.00000000E+00  0.00000000E+00  0.00000000E+00
  0.00000000E+00  0.00000000E+00  0.00000000E+00  0.00000000E+00  0.00000000E+00
  0.00000000E+00  0.00000000E+00  0.00000000E+00  0.00000000E+00  0.00000000E+00
  0.00000000E+00  0.00000000E+00  0.00000000E+00  0.00000000E+00  0.00000000E+00
  0.00000000E+00  0.00000000E+00  0.00000000E+00  0.00000000E+00  0.00000000E+00
  0.00000000E+00  0.00000000E+00  0.00000000E+00  0.00000000E+00  0.00000000E+00
  0.00000000E+00  0.00000000E+00  0.00000000E+00  0.00000000E+00  0.00000000E+00
  0.00000000E+00  0.00000000E+00  0.00000000E+00  0.00000000E+00  0.00000000E+00
  0.00000000E+00  0.00000000E+00  0.00000000E+00  0.00000000E+00  0.00000000E+00
  0.00000000E+00  0.00000000E+00  0.00000000E+00  0.00000000E+00  0.00000000E+00
  0.00000000E+00  0.00000000E+00  0.00000000E+00  0.00000000E+00  0.00000000E+00
  0.00000000E+00  0.00000000E+00  0.00000000E+00  0.00000000E+00  0.00000000E+00
  0.00000000E+00  0.00000000E+00  0.00000000E+00  0.00000000E+00  0.00000000E+00
  0.00000000E+00  0.00000000E+00  0.00000000E+00  0.00000000E+00  0.00000000E+00
  0.00000000E+00  0.00000000E+00  0.00000000E+00  0.00000000E+00  0.00000000E+00
  0.00000000E+00  0.00000000E+00  0.00000000E+00  0.00000000E+00  0.00000000E+00
  0.00000000E+00  0.00000000E+00  0.00000000E+00  0.00000000E+00  0.00000000E+00
  0.00000000E+00  0.00000000E+00
MO    3                     OCC NO =   1.00000000 ORB. ENERGY = -83.40838601
  2.34955176E+01  2.38897122E+01  2.13762744E+01  1.82480277E+01  1.58654322E+01
  1.44073244E+01  1.31057244E+01  1.27058503E+01  1.21634965E+01  1.08446277E+01
  1.00499806E+01  6.70102387E+00  1.08650678E+00  2.45994166E+00  5.37276028E+00
  8.53576575E+00  9.58822916E+00 -2.99889396E+00 -1.29508671E+01 -1.08125914E+01
  1.27280096E+00  6.06715919E+00  1.69098067E+00  4.95666362E-02  1.06837753E-03
 -2.04944934E-04  4.66338418E-05 -1.06796259E-05  1.44952079E-06 -1.96930447E-07
  0.00000000E+00  0.00000000E+00  0.00000000E+00  0.00000000E+00  0.00000000E+00
  0.00000000E+00  0.00000000E+00  0.00000000E+00  0.00000000E+00  0.00000000E+00
  0.00000000E+00  0.00000000E+00  0.00000000E+00  0.00000000E+00  0.00000000E+00
  0.00000000E+00  0.00000000E+00  0.00000000E+00  0.00000000E+00  0.00000000E+00
  0.00000000E+00  0.00000000E+00  0.00000000E+00  0.00000000E+00  0.00000000E+00
  0.00000000E+00  0.00000000E+00  0.00000000E+00  0.00000000E+00  0.00000000E+00
  0.00000000E+00  0.00000000E+00  0.00000000E+00  0.00000000E+00  0.00000000E+00
  0.00000000E+00  0.00000000E+00  0.00000000E+00  0.00000000E+00  0.00000000E+00
  0.00000000E+00  0.00000000E+00  0.00000000E+00  0.00000000E+00  0.00000000E+00
  0.00000000E+00  0.00000000E+00  0.00000000E+00  0.00000000E+00  0.00000000E+00
  0.00000000E+00  0.00000000E+00  0.00000000E+00  0.00000000E+00  0.00000000E+00
  0.00000000E+00  0.00000000E+00  0.00000000E+00  0.00000000E+00  0.00000000E+00
  0.00000000E+00  0.00000000E+00  0.00000000E+00  0.00000000E+00  0.00000000E+00
  0.00000000E+00  0.00000000E+00  0.00000000E+00  0.00000000E+00  0.00000000E+00
  0.00000000E+00  0.00000000E+00  0.00000000E+00  0.00000000E+00  0.00000000E+00
  0.00000000E+00  0.00000000E+00  0.00000000E+00  0.00000000E+00  0.00000000E+00
  0.00000000E+00  0.00000000E+00  0.00000000E+00  0.00000000E+00  0.00000000E+00
  0.00000000E+00  0.00000000E+00  0.00000000E+00  0.00000000E+00  0.00000000E+00
  0.00000000E+00  0.00000000E+00  0.00000000E+00  0.00000000E+00  0.00000000E+00
  0.00000000E+00  0.00000000E+00  0.00000000E+00  0.00000000E+00  0.00000000E+00
  0.00000000E+00  0.00000000E+00  0.00000000E+00  0.00000000E+00  0.00000000E+00
  0.00000000E+00  0.00000000E+00  0.00000000E+00  0.00000000E+00  0.00000000E+00
  0.00000000E+00  0.00000000E+00  0.00000000E+00  0.00000000E+00  0.00000000E+00
  0.00000000E+00  0.00000000E+00  0.00000000E+00  0.00000000E+00  0.00000000E+00
  0.00000000E+00  0.00000000E+00  0.00000000E+00  0.00000000E+00  0.00000000E+00
  0.00000000E+00  0.00000000E+00  0.00000000E+00  0.00000000E+00  0.00000000E+00
  0.00000000E+00  0.00000000E+00  0.00000000E+00  0.00000000E+00  0.00000000E+00
  0.00000000E+00  0.00000000E+00  0.00000000E+00  0.00000000E+00  0.00000000E+00
  0.00000000E+00  0.00000000E+00  0.00000000E+00  0.00000000E+00  0.00000000E+00
  0.00000000E+00  0.00000000E+00  0.00000000E+00  0.00000000E+00  0.00000000E+00
  0.00000000E+00  0.00000000E+00  0.00000000E+00  0.00000000E+00  0.00000000E+00
  0.00000000E+00  0.00000000E+00  0.00000000E+00  0.00000000E+00  0.00000000E+00
  0.00000000E+00  0.00000000E+00  0.00000000E+00  0.00000000E+00  0.00000000E+00
  0.00000000E+00  0.00000000E+00  0.00000000E+00  0.00000000E+00  0.00000000E+00
  0.00000000E+00  0.00000000E+00  0.00000000E+00  0.00000000E+00  0.00000000E+00
  0.00000000E+00  0.00000000E+00  0.00000000E+00  0.00000000E+00  0.00000000E+00
  0.00000000E+00  0.00000000E+00  0.00000000E+00  0.00000000E+00  0.00000000E+00
  0.00000000E+00  0.00000000E+00  0.00000000E+00  0.00000000E+00  0.00000000E+00
  0.00000000E+00  0.00000000E+00  0.00000000E+00  0.00000000E+00  0.00000000E+00
  0.00000000E+00  0.00000000E+00  0.00000000E+00  0.00000000E+00  0.00000000E+00
  0.00000000E+00  0.00000000E+00  0.00000000E+00  0.00000000E+00  0.00000000E+00
  0.00000000E+00  0.00000000E+00  0.00000000E+00  0.00000000E+00  0.00000000E+00
  0.00000000E+00  0.00000000E+00  0.00000000E+00  0.00000000E+00  0.00000000E+00
  0.00000000E+00  0.00000000E+00  0.00000000E+00  0.00000000E+00  0.00000000E+00
  0.00000000E+00  0.00000000E+00  0.00000000E+00  0.00000000E+00  0.00000000E+00
  0.00000000E+00  0.00000000E+00  0.00000000E+00  0.00000000E+00  0.00000000E+00
  0.00000000E+00  0.00000000E+00  0.00000000E+00  0.00000000E+00  0.00000000E+00
  0.00000000E+00  0.00000000E+00  0.00000000E+00  0.00000000E+00  0.00000000E+00
  0.00000000E+00  0.00000000E+00  0.00000000E+00  0.00000000E+00  0.00000000E+00
  0.00000000E+00  0.00000000E+00  0.00000000E+00  0.00000000E+00  0.00000000E+00
  0.00000000E+00  0.00000000E+00  0.00000000E+00  0.00000000E+00  0.00000000E+00
  0.00000000E+00  0.00000000E+00  0.00000000E+00  0.00000000E+00  0.00000000E+00
  0.00000000E+00  0.00000000E+00  0.00000000E+00  0.00000000E+00  0.00000000E+00