atomref-proatoms V_q0_mult4_nist x2c-QZVPall
GAUSSIAN             25 MOL ORBITALS    183 PRIMITIVES        1 NUCLEI
  V    1    (CENTRE  1)   0.00000000  0.00000000  0.00000000  CHARGE = 23.0
CENTRE ASSIGNMENTS    1  1  1  1  1  1  1  1  1  1  1  1  1  1  1  1  1  1  1  1
CENTRE ASSIGNMENTS    1  1  1  1  1  1  1  1  1  1  1  1  1  1  1  1  1  1  1  1
CENTRE ASSIGNMENTS    1  1  1  1  1  1  1  1  1  1  1  1  1  1  1  1  1  1  1  1
CENTRE ASSIGNMENTS    1  1  1  1  1  1  1  1  1  1  1  1  1  1  1  1  1  1  1  1
CENTRE ASSIGNMENTS    1  1  1  1  1  1  1  1  1  1  1  1  1  1  1  1  1  1  1  1
CENTRE ASSIGNMENTS    1  1  1  1  1  1  1  1  1  1  1  1  1  1  1  1  1  1  1  1
CENTRE ASSIGNMENTS    1  1  1  1  1  1  1  1  1  1  1  1  1  1  1  1  1  1  1  1
CENTRE ASSIGNMENTS    1  1  1  1  1  1  1  1  1  1  1  1  1  1  1  1  1  1  1  1
CENTRE ASSIGNMENTS    1  1  1  1  1  1  1  1  1  1  1  1  1  1  1  1  1  1  1  1
CENTRE ASSIGNMENTS    1  1  1
TYPE ASSIGNMENTS      1  1  1  1  1  1  1  1  1  1  1  1  1  1  1  1  1  1  1  1
TYPE ASSIGNMENTS      1  1  1  1  2  3  4  2  3  4  2  3  4  2  3  4  2  3  4  2
TYPE ASSIGNMENTS      3  4  2  3  4  2  3  4  2  3  4  2  3  4  2  3  4  2  3  4
TYPE ASSIGNMENTS      2  3  4  2  3  4  2  3  4  2  3  4  2  3  4  2  3  4  2  3
TYPE ASSIGNMENTS      4  2  3  4  5  8  9  6 10  7  5  8  9  6 10  7  5  8  9  6
TYPE ASSIGNMENTS     10  7  5  8  9  6 10  7  5  8  9  6 10  7  5  8  9  6 10  7
TYPE ASSIGNMENTS      5  8  9  6 10  7  5  8  9  6 10  7  5  8  9  6 10  7 11 14
TYPE ASSIGNMENTS     15 17 20 18 12 16 19 13 11 14 15 17 20 18 12 16 19 13 11 14
TYPE ASSIGNMENTS     15 17 20 18 12 16 19 13 21 24 25 30 33 31 26 34 35 28 22 27
TYPE ASSIGNMENTS     32 29 23
EXPONENTS  5.5154357E+06 7.1721722E+05 1.5608214E+05 4.3988558E+04 1.4160493E+04
EXPONENTS  5.0319660E+03 1.9633196E+03 8.0905723E+02 3.5357264E+02 1.6260943E+02
EXPONENTS  7.7017426E+01 1.0928092E+03 3.3157291E+02 1.2650462E+02 5.4597274E+01
EXPONENTS  2.7990833E+01 1.2182427E+01 5.7276116E+00 2.4353508E+00 1.1777001E+00
EXPONENTS  5.2246122E-01 1.1823853E-01 5.8903189E-02 2.6912771E-02 2.1325486E+04
EXPONENTS  2.1325486E+04 2.1325486E+04 5.2959128E+03 5.2959128E+03 5.2959128E+03
EXPONENTS  1.4999542E+03 1.4999542E+03 1.4999542E+03 4.8451862E+02 4.8451862E+02
EXPONENTS  4.8451862E+02 1.7850000E+02 1.7850000E+02 1.7850000E+02 7.4888967E+01
EXPONENTS  7.4888967E+01 7.4888967E+01 3.3705252E+01 3.3705252E+01 3.3705252E+01
EXPONENTS  1.5676776E+01 1.5676776E+01 1.5676776E+01 7.4132743E+00 7.4132743E+00
EXPONENTS  7.4132743E+00 3.4054665E+00 3.4054665E+00 3.4054665E+00 1.1100000E+01
EXPONENTS  1.1100000E+01 1.1100000E+01 4.5648493E+01 4.5648493E+01 4.5648493E+01
EXPONENTS  1.5996762E+01 1.5996762E+01 1.5996762E+01 3.1471797E+00 3.1471797E+00
EXPONENTS  3.1471797E+00 1.4564179E+00 1.4564179E+00 1.4564179E+00 6.6126152E-01
EXPONENTS  6.6126152E-01 6.6126152E-01 2.7663965E-01 2.7663965E-01 2.7663965E-01
EXPONENTS  1.2200000E-01 1.2200000E-01 1.2200000E-01 5.5000000E-02 5.5000000E-02
EXPONENTS  5.5000000E-02 2.5000000E-02 2.5000000E-02 2.5000000E-02 1.0506188E+02
EXPONENTS  1.0506188E+02 1.0506188E+02 1.0506188E+02 1.0506188E+02 1.0506188E+02
EXPONENTS  3.1132734E+01 3.1132734E+01 3.1132734E+01 3.1132734E+01 3.1132734E+01
EXPONENTS  3.1132734E+01 1.1502871E+01 1.1502871E+01 1.1502871E+01 1.1502871E+01
EXPONENTS  1.1502871E+01 1.1502871E+01 4.6981112E+00 4.6981112E+00 4.6981112E+00
EXPONENTS  4.6981112E+00 4.6981112E+00 4.6981112E+00 2.0186520E+00 2.0186520E+00
EXPONENTS  2.0186520E+00 2.0186520E+00 2.0186520E+00 2.0186520E+00 8.5981772E-01
EXPONENTS  8.5981772E-01 8.5981772E-01 8.5981772E-01 8.5981772E-01 8.5981772E-01
EXPONENTS  3.5274109E-01 3.5274109E-01 3.5274109E-01 3.5274109E-01 3.5274109E-01
EXPONENTS  3.5274109E-01 1.3208336E-01 1.3208336E-01 1.3208336E-01 1.3208336E-01
EXPONENTS  1.3208336E-01 1.3208336E-01 5.2000000E-02 5.2000000E-02 5.2000000E-02
EXPONENTS  5.2000000E-02 5.2000000E-02 5.2000000E-02 2.9330000E+00 2.9330000E+00
EXPONENTS  2.9330000E+00 2.9330000E+00 2.9330000E+00 2.9330000E+00 2.9330000E+00
EXPONENTS  2.9330000E+00 2.9330000E+00 2.9330000E+00 8.3100000E-01 8.3100000E-01
EXPONENTS  8.3100000E-01 8.3100000E-01 8.3100000E-01 8.3100000E-01 8.3100000E-01
EXPONENTS  8.3100000E-01 8.3100000E-01 8.3100000E-01 2.5700000E-01 2.5700000E-01
EXPONENTS  2.5700000E-01 2.5700000E-01 2.5700000E-01 2.5700000E-01 2.5700000E-01
EXPONENTS  2.5700000E-01 2.5700000E-01 2.5700000E-01 1.0090000E+00 1.0090000E+00
EXPONENTS  1.0090000E+00 1.0090000E+00 1.0090000E+00 1.0090000E+00 1.0090000E+00
EXPONENTS  1.0090000E+00 1.0090000E+00 1.0090000E+00 1.0090000E+00 1.0090000E+00
EXPONENTS  1.0090000E+00 1.0090000E+00 1.0090000E+00
MO    1                     OCC NO =   1.00000000 ORB. ENERGY = -198.47915763
  5.81297160E+00  4.29570765E+00  3.91040897E+00  4.23925164E+00  5.15032742E+00
  6.52628752E+00  8.25971133E+00  1.02539389E+01  1.07578928E+01  8.53807821E+00
  3.64205566E+00  3.16166019E-01  1.15718556E+00  2.41431489E+00  2.24364420E+00
  7.48965998E-01 -1.95554386E-02  1.27095060E-02 -4.33847513E-03  1.50970534E-03
 -3.07766657E-04  4.31755851E-05 -2.04209953E-05  3.44396838E-06  0.00000000E+00
  0.00000000E+00  0.00000000E+00  0.00000000E+00  0.00000000E+00  0.00000000E+00
  0.00000000E+00  0.00000000E+00  0.00000000E+00  0.00000000E+00  0.00000000E+00
  0.00000000E+00  0.00000000E+00  0.00000000E+00  0.00000000E+00  0.00000000E+00
  0.00000000E+00  0.00000000E+00  0.00000000E+00  0.00000000E+00  0.00000000E+00
  0.00000000E+00  0.00000000E+00  0.00000000E+00  0.00000000E+00  0.00000000E+00
  0.00000000E+00  0.00000000E+00  0.00000000E+00  0.00000000E+00  0.00000000E+00
  0.00000000E+00  0.00000000E+00  0.00000000E+00  0.00000000E+00  0.00000000E+00
  0.00000000E+00  0.00000000E+00  0.00000000E+00  0.00000000E+00  0.00000000E+00
  0.00000000E+00  0.00000000E+00  0.00000000E+00  0.00000000E+00  0.00000000E+00
  0.00000000E+00  0.00000000E+00  0.00000000E+00  0.00000000E+00  0.00000000E+00
  0.00000000E+00  0.00000000E+00  0.00000000E+00  0.00000000E+00  0.00000000E+00
  0.00000000E+00  0.00000000E+00  0.00000000E+00  0.00000000E+00  0.00000000E+00
  0.00000000E+00  0.00000000E+00  0.00000000E+00  0.00000000E+00  0.00000000E+00
  0.00000000E+00  0.00000000E+00  0.00000000E+00  0.00000000E+00  0.00000000E+00
  0.00000000E+00  0.00000000E+00  0.00000000E+00  0.00000000E+00  0.00000000E+00
  0.00000000E+00  0.00000000E+00  0.00000000E+00  0.00000000E+00  0.00000000E+00
  0.00000000E+00  0.00000000E+00  0.00000000E+00  0.00000000E+00  0.00000000E+00
  0.00000000E+00  0.00000000E+00  0.00000000E+00  0.00000000E+00  0.00000000E+00
  0.00000000E+00  0.00000000E+00  0.00000000E+00  0.00000000E+00  0.00000000E+00
  0.00000000E+00  0.00000000E+00  0.00000000E+00  0.00000000E+00  0.00000000E+00
  0.00000000E+00  0.00000000E+00  0.00000000E+00  0.00000000E+00  0.00000000E+00
  0.00000000E+00  0.00000000E+00  0.00000000E+00  0.00000000E+00  0.00000000E+00
  0.00000000E+00  0.00000000E+00  0.00000000E+00  0.00000000E+00  0.00000000E+00
  0.00000000E+00  0.00000000E+00  0.00000000E+00  0.00000000E+00  0.00000000E+00
  0.00000000E+00  0.00000000E+00  0.00000000E+00  0.00000000E+00  0.00000000E+00
  0.00000000E+00  0.00000000E+00  0.00000000E+00  0.00000000E+00  0.00000000E+00
  0.00000000E+00  0.00000000E+00  0.00000000E+00  0.00000000E+00  0.00000000E+00
  0.00000000E+00  0.00000000E+00  0.00000000E+00  0.00000000E+00  0.00000000E+00
  0.00000000E+00  0.00000000E+00  0.00000000E+00  0.00000000E+00  0.00000000E+00
  0.00000000E+00  0.00000000E+00  0.00000000E+00  0.00000000E+00  0.00000000E+00
  0.00000000E+00  0.00000000E+00  0.00000000E+00  0.00000000E+00  0.00000000E+00
  0.00000000E+00  0.00000000E+00  0.00000000E+00
MO    2                     OCC NO =   1.00000000 ORB. ENERGY = -22.67965704
 -1.77367192E+00 -1.31071964E+00 -1.19315611E+00 -1.29349361E+00 -1.57148388E+00
 -1.99132109E+00 -2.52022874E+00 -3.12871363E+00 -3.28248161E+00 -2.60516490E+00
 -1.11127532E+00 -3.08730231E-01 -1.12997016E+00 -2.35753354E+00 -2.19087679E+00
  3.54644130E-01  2.33753380E+00  1.34681544E+00  1.52774971E-01 -1.07469288E-02
  2.07095874E-03 -2.53873315E-04  1.19672081E-04 -2.01573593E-05  0.00000000E+00
  0.00000000E+00  0.00000000E+00  0.00000000E+00  0.00000000E+00  0.00000000E+00
  0.00000000E+00  0.00000000E+00  0.00000000E+00  0.00000000E+00  0.00000000E+00
  0.00000000E+00  0.00000000E+00  0.00000000E+00  0.00000000E+00  0.00000000E+00
  0.00000000E+00  0.00000000E+00  0.00000000E+00  0.00000000E+00  0.00000000E+00
  0.00000000E+00  0.00000000E+00  0.00000000E+00  0.00000000E+00  0.00000000E+00
  0.00000000E+00  0.00000000E+00  0.00000000E+00  0.00000000E+00  0.00000000E+00
  0.00000000E+00  0.00000000E+00  0.00000000E+00  0.00000000E+00  0.00000000E+00
  0.00000000E+00  0.00000000E+00  0.00000000E+00  0.00000000E+00  0.00000000E+00
  0.00000000E+00  0.00000000E+00  0.00000000E+00  0.00000000E+00  0.00000000E+00
  0.00000000E+00  0.00000000E+00  0.00000000E+00  0.00000000E+00  0.00000000E+00
  0.00000000E+00  0.00000000E+00  0.00000000E+00  0.00000000E+00  0.00000000E+00
  0.00000000E+00  0.00000000E+00  0.00000000E+00  0.00000000E+00  0.00000000E+00
  0.00000000E+00  0.00000000E+00  0.00000000E+00  0.00000000E+00  0.00000000E+00
  0.00000000E+00  0.00000000E+00  0.00000000E+00  0.00000000E+00  0.00000000E+00
  0.00000000E+00  0.00000000E+00  0.00000000E+00  0.00000000E+00  0.00000000E+00
  0.00000000E+00  0.00000000E+00  0.00000000E+00  0.00000000E+00  0.00000000E+00
  0.00000000E+00  0.00000000E+00  0.00000000E+00  0.00000000E+00  0.00000000E+00
  0.00000000E+00  0.00000000E+00  0.00000000E+00  0.00000000E+00  0.00000000E+00
  0.00000000E+00  0.00000000E+00  0.00000000E+00  0.00000000E+00  0.00000000E+00
  0.00000000E+00  0.00000000E+00  0.00000000E+00  0.00000000E+00  0.00000000E+00
  0.00000000E+00  0.00000000E+00  0.00000000E+00  0.00000000E+00  0.00000000E+00
  0.00000000E+00  0.00000000E+00  0.00000000E+00  0.00000000E+00  0.00000000E+00
  0.00000000E+00  0.00000000E+00  0.00000000E+00  0.00000000E+00  0.00000000E+00
  0.00000000E+00  0.00000000E+00  0.00000000E+00  0.00000000E+00  0.00000000E+00
  0.00000000E+00  0.00000000E+00  0.00000000E+00  0.00000000E+00  0.00000000E+00
  0.00000000E+00  0.00000000E+00  0.00000000E+00  0.00000000E+00  0.00000000E+00
  0.00000000E+00  0.00000000E+00  0.00000000E+00  0.00000000E+00  0.00000000E+00
  0.00000000E+00  0.00000000E+00  0.00000000E+00  0.00000000E+00  0.00000000E+00
  0.00000000E+00  0.00000000E+00  0.00000000E+00  0.00000000E+00  0.00000000E+00
  0.00000000E+00  0.00000000E+00  0.00000000E+00  0.00000000E+00  0.00000000E+00
  0.00000000E+00  0.00000000E+00  0.00000000E+00  0.00000000E+00  0.00000000E+00
  0.00000000E+00  0.00000000E+00  0.00000000E+00
MO    3                     OCC NO =   1.00000000 ORB. ENERGY =  -2.81712956
  6.56174812E-01  4.84904340E-01  4.41411389E-01  4.78531521E-01  5.81374787E-01
  7.36694719E-01  9.32365560E-01  1.15747622E+00  1.21436311E+00  9.63787929E-01
  4.11119364E-01  1.28399939E-01  4.69951058E-01  9.80490833E-01  9.11178811E-01
 -1.67564881E-01 -1.34775948E+00 -1.19938913E+00  1.41450115E-01  5.86110743E-01
  1.78190261E-01  3.46435970E-03 -1.08250749E-03  1.56722496E-04  0.00000000E+00
  0.00000000E+00  0.00000000E+00  0.00000000E+00  0.00000000E+00  0.00000000E+00
  0.00000000E+00  0.00000000E+00  0.00000000E+00  0.00000000E+00  0.00000000E+00
  0.00000000E+00  0.00000000E+00  0.00000000E+00  0.00000000E+00  0.00000000E+00
  0.00000000E+00  0.00000000E+00  0.00000000E+00  0.00000000E+00  0.00000000E+00
  0.00000000E+00  0.00000000E+00  0.00000000E+00  0.00000000E+00  0.00000000E+00
  0.00000000E+00  0.00000000E+00  0.00000000E+00  0.00000000E+00  0.00000000E+00
  0.00000000E+00  0.00000000E+00  0.00000000E+00  0.00000000E+00  0.00000000E+00
  0.00000000E+00  0.00000000E+00  0.00000000E+00  0.00000000E+00  0.00000000E+00
  0.00000000E+00  0.00000000E+00  0.00000000E+00  0.00000000E+00  0.00000000E+00
  0.00000000E+00  0.00000000E+00  0.00000000E+00  0.00000000E+00  0.00000000E+00
  0.00000000E+00  0.00000000E+00  0.00000000E+00  0.00000000E+00  0.00000000E+00
  0.00000000E+00  0.00000000E+00  0.00000000E+00  0.00000000E+00  0.00000000E+00
  0.00000000E+00  0.00000000E+00  0.00000000E+00  0.00000000E+00  0.00000000E+00
  0.00000000E+00  0.00000000E+00  0.00000000E+00  0.00000000E+00  0.00000000E+00
  0.00000000E+00  0.00000000E+00  0.00000000E+00  0.00000000E+00  0.00000000E+00
  0.00000000E+00  0.00000000E+00  0.00000000E+00  0.00000000E+00  0.00000000E+00
  0.00000000E+00  0.00000000E+00  0.00000000E+00  0.00000000E+00  0.00000000E+00
  0.00000000E+00  0.00000000E+00  0.00000000E+00  0.00000000E+00  0.00000000E+00
  0.00000000E+00  0.00000000E+00  0.00000000E+00  0.00000000E+00  0.00000000E+00
  0.00000000E+00  0.00000000E+00  0.00000000E+00  0.00000000E+00  0.00000000E+00
  0.00000000E+00  0.00000000E+00  0.00000000E+00  0.00000000E+00  0.00000000E+00
  0.00000000E+00  0.00000000E+00  0.00000000E+00  0.00000000E+00  0.00000000E+00
  0.00000000E+00  0.00000000E+00  0.00000000E+00  0.00000000E+00  0.00000000E+00
  0.00000000E+00  0.00000000E+00  0.00000000E+00  0.00000000E+00  0.00000000E+00
  0.00000000E+00  0.00000000E+00  0.00000000E+00  0.00000000E+00  0.00000000E+00
  0.00000000E+00  0.00000000E+00  0.00000000E+00  0.00000000E+00  0.00000000E+00
  0.00000000E+00  0.00000000E+00  0.00000000E+00  0.00000000E+00  0.00000000E+00
  0.00000000E+00  0.00000000E+00  0.00000000E+00  0.00000000E+00  0.00000000E+00
  0.00000000E+00  0.00000000E+00  0.00000000E+00  0.00000000E+00  0.00000000E+00
  0.00000000E+00  0.00000000E+00  0.00000000E+00  0.00000000E+00  0.00000000E+00
  0.00000000E+00  0.00000000E+00  0.00000000E+00  0.00000000E+00  0.00000000E+00
  0.00000000E+00  0.00000000E+00  0.00000000E+00
MO    4                     OCC NO =   1.00000000 ORB. ENERGY =  -0.20795446
 -1.76415810E-01 -1.30368906E-01 -1.18675613E-01 -1.28655542E-01 -1.56305458E-01
 -1.98063982E-01 -2.50671045E-01 -3.11193149E-01 -3.26487467E-01 -2.59119103E-01
 -1.10531454E-01 -3.49748917E-02 -1.28010087E-01 -2.67076145E-01 -2.48196226E-01
  4.45178611E-02  3.87584530E-01  3.59760754E-01 -4.60411176E-02 -2.60463981E-01
 -1.16499972E-01  7.45358690E-02  4.36130044E-02  7.28615409E-03  0.00000000E+00
  0.00000000E+00  0.00000000E+00  0.00000000E+00  0.00000000E+00  0.00000000E+00
  0.00000000E+00  0.00000000E+00  0.00000000E+00  0.00000000E+00  0.00000000E+00
  0.00000000E+00  0.00000000E+00  0.00000000E+00  0.00000000E+00  0.00000000E+00
  0.00000000E+00  0.00000000E+00  0.00000000E+00  0.00000000E+00  0.00000000E+00
  0.00000000E+00  0.00000000E+00  0.00000000E+00  0.00000000E+00  0.00000000E+00
  0.00000000E+00  0.00000000E+00  0.00000000E+00  0.00000000E+00  0.00000000E+00
  0.00000000E+00  0.00000000E+00  0.00000000E+00  0.00000000E+00  0.00000000E+00
  0.00000000E+00  0.00000000E+00  0.00000000E+00  0.00000000E+00  0.00000000E+00
  0.00000000E+00  0.00000000E+00  0.00000000E+00  0.00000000E+00  0.00000000E+00
  0.00000000E+00  0.00000000E+00  0.00000000E+00  0.00000000E+00  0.00000000E+00
  0.00000000E+00  0.00000000E+00  0.00000000E+00  0.00000000E+00  0.00000000E+00
  0.00000000E+00  0.00000000E+00  0.00000000E+00  0.00000000E+00  0.00000000E+00
  0.00000000E+00  0.00000000E+00  0.00000000E+00  0.00000000E+00  0.00000000E+00
  0.00000000E+00  0.00000000E+00  0.00000000E+00  0.00000000E+00  0.00000000E+00
  0.00000000E+00  0.00000000E+00  0.00000000E+00  0.00000000E+00  0.00000000E+00
  0.00000000E+00  0.00000000E+00  0.00000000E+00  0.00000000E+00  0.00000000E+00
  0.00000000E+00  0.00000000E+00  0.00000000E+00  0.00000000E+00  0.00000000E+00
  0.00000000E+00  0.00000000E+00  0.00000000E+00  0.00000000E+00  0.00000000E+00
  0.00000000E+00  0.00000000E+00  0.00000000E+00  0.00000000E+00  0.00000000E+00
  0.00000000E+00  0.00000000E+00  0.00000000E+00  0.00000000E+00  0.00000000E+00
  0.00000000E+00  0.00000000E+00  0.00000000E+00  0.00000000E+00  0.00000000E+00
  0.00000000E+00  0.00000000E+00  0.00000000E+00  0.00000000E+00  0.00000000E+00
  0.00000000E+00  0.00000000E+00  0.00000000E+00  0.00000000E+00  0.00000000E+00
  0.00000000E+00  0.00000000E+00  0.00000000E+00  0.00000000E+00  0.00000000E+00
  0.00000000E+00  0.00000000E+00  0.00000000E+00  0.00000000E+00  0.00000000E+00
  0.00000000E+00  0.00000000E+00  0.00000000E+00  0.00000000E+00  0.00000000E+00
  0.00000000E+00  0.00000000E+00  0.00000000E+00  0.00000000E+00  0.00000000E+00
  0.00000000E+00  0.00000000E+00  0.00000000E+00  0.00000000E+00  0.00000000E+00
  0.00000000E+00  0.00000000E+00  0.00000000E+00  0.00000000E+00  0.00000000E+00
  0.00000000E+00  0.00000000E+00  0.00000000E+00  0.00000000E+00  0.00000000E+00
  0.00000000E+00  0.00000000E+00  0.00000000E+00  0.00000000E+00  0.00000000E+00
  0.00000000E+00  0.00000000E+00  0.00000000E+00
MO    5                     OCC NO =   1.00000000 ORB. ENERGY = -18.91144169
  0.00000000E+00  0.00000000E+00  0.00000000E+00  0.00000000E+00  0.00000000E+00
  0.00000000E+00  0.00000000E+00  0.00000000E+00  0.00000000E+00  0.00000000E+00
  0.00000000E+00  0.00000000E+00  0.00000000E+00  0.00000000E+00  0.00000000E+00
  0.00000000E+00  0.00000000E+00  0.00000000E+00  0.00000000E+00  0.00000000E+00
  0.00000000E+00  0.00000000E+00  0.00000000E+00  0.00000000E+00  1.92684932E+01
  0.00000000E+00  0.00000000E+00  1.66839792E+01  0.00000000E+00  0.00000000E+00
  2.15172022E+01  0.00000000E+00  0.00000000E+00  2.82599759E+01  0.00000000E+00
  0.00000000E+00  3.30212378E+01  0.00000000E+00  0.00000000E+00  3.34513194E+01
  0.00000000E+00  0.00000000E+00  2.79558885E+01  0.00000000E+00  0.00000000E+00
  1.67377196E+01  0.00000000E+00  0.00000000E+00  5.69214023E+00  0.00000000E+00
  0.00000000E+00  6.32990086E-01  0.00000000E+00  0.00000000E+00 -5.99612504E-02
  0.00000000E+00  0.00000000E+00 -8.99514910E-03  0.00000000E+00  0.00000000E+00
 -1.06756010E-02  0.00000000E+00  0.00000000E+00  1.48079005E-02  0.00000000E+00
  0.00000000E+00  1.19488600E-02  0.00000000E+00  0.00000000E+00  3.65389604E-03
  0.00000000E+00  0.00000000E+00 -1.88084589E-03  0.00000000E+00  0.00000000E+00
  5.91828365E-04  0.00000000E+00  0.00000000E+00 -1.28577890E-04  0.00000000E+00
  0.00000000E+00  1.57802081E-05  0.00000000E+00  0.00000000E+00  0.00000000E+00
  0.00000000E+00  0.00000000E+00  0.00000000E+00  0.00000000E+00  0.00000000E+00
  0.00000000E+00  0.00000000E+00  0.00000000E+00  0.00000000E+00  0.00000000E+00
  0.00000000E+00  0.00000000E+00  0.00000000E+00  0.00000000E+00  0.00000000E+00
  0.00000000E+00  0.00000000E+00  0.00000000E+00  0.00000000E+00  0.00000000E+00
  0.00000000E+00  0.00000000E+00  0.00000000E+00  0.00000000E+00  0.00000000E+00
  0.00000000E+00  0.00000000E+00  0.00000000E+00  0.00000000E+00  0.00000000E+00
  0.00000000E+00  0.00000000E+00  0.00000000E+00  0.00000000E+00  0.00000000E+00
  0.00000000E+00  0.00000000E+00  0.00000000E+00  0.00000000E+00  0.00000000E+00
  0.00000000E+00  0.00000000E+00  0.00000000E+00  0.00000000E+00  0.00000000E+00
  0.00000000E+00  0.00000000E+00  0.00000000E+00  0.00000000E+00  0.00000000E+00
  0.00000000E+00  0.00000000E+00  0.00000000E+00  0.00000000E+00  0.00000000E+00
  0.00000000E+00  0.00000000E+00  0.00000000E+00  0.00000000E+00  0.00000000E+00
  0.00000000E+00  0.00000000E+00  0.00000000E+00  0.00000000E+00  0.00000000E+00
  0.00000000E+00  0.00000000E+00  0.00000000E+00  0.00000000E+00  0.00000000E+00
  0.00000000E+00  0.00000000E+00  0.00000000E+00  0.00000000E+00  0.00000000E+00
  0.00000000E+00  0.00000000E+00  0.00000000E+00  0.00000000E+00  0.00000000E+00
  0.00000000E+00  0.00000000E+00  0.00000000E+00  0.00000000E+00  0.00000000E+00
  0.00000000E+00  0.00000000E+00  0.00000000E+00  0.00000000E+00  0.00000000E+00
  0.00000000E+00  0.00000000E+00  0.00000000E+00  0.00000000E+00  0.00000000E+00
  0.00000000E+00  0.00000000E+00  0.00000000E+00
MO    6                     OCC NO =   1.00000000 ORB. ENERGY = -18.91144169
  0.00000000E+00  0.00000000E+00  0.00000000E+00  0.00000000E+00  0.00000000E+00
  0.00000000E+00  0.00000000E+00  0.00000000E+00  0.00000000E+00  0.00000000E+00
  0.00000000E+00  0.00000000E+00  0.00000000E+00  0.00000000E+00  0.00000000E+00
  0.00000000E+00  0.00000000E+00  0.00000000E+00  0.00000000E+00  0.00000000E+00
  0.00000000E+00  0.00000000E+00  0.00000000E+00  0.00000000E+00  0.00000000E+00
  1.92684932E+01  0.00000000E+00  0.00000000E+00  1.66839792E+01  0.00000000E+00
  0.00000000E+00  2.15172022E+01  0.00000000E+00  0.00000000E+00  2.82599759E+01
  0.00000000E+00  0.00000000E+00  3.30212378E+01  0.00000000E+00  0.00000000E+00
  3.34513194E+01  0.00000000E+00  0.00000000E+00  2.79558885E+01  0.00000000E+00
  0.00000000E+00  1.67377196E+01  0.00000000E+00  0.00000000E+00  5.69214023E+00
  0.00000000E+00  0.00000000E+00  6.32990086E-01  0.00000000E+00  0.00000000E+00
 -5.99612504E-02  0.00000000E+00  0.00000000E+00 -8.99514910E-03  0.00000000E+00
  0.00000000E+00 -1.06756010E-02  0.00000000E+00  0.00000000E+00  1.48079005E-02
  0.00000000E+00  0.00000000E+00  1.19488600E-02  0.00000000E+00  0.00000000E+00
  3.65389604E-03  0.00000000E+00  0.00000000E+00 -1.88084589E-03  0.00000000E+00
  0.00000000E+00  5.91828365E-04  0.00000000E+00  0.00000000E+00 -1.28577890E-04
  0.00000000E+00  0.00000000E+00  1.57802081E-05  0.00000000E+00  0.00000000E+00
  0.00000000E+00  0.00000000E+00  0.00000000E+00  0.00000000E+00  0.00000000E+00
  0.00000000E+00  0.00000000E+00  0.00000000E+00  0.00000000E+00  0.00000000E+00
  0.00000000E+00  0.00000000E+00  0.00000000E+00  0.00000000E+00  0.00000000E+00
  0.00000000E+00  0.00000000E+00  0.00000000E+00  0.00000000E+00  0.00000000E+00
  0.00000000E+00  0.00000000E+00  0.00000000E+00  0.00000000E+00  0.00000000E+00
  0.00000000E+00  0.00000000E+00  0.00000000E+00  0.00000000E+00  0.00000000E+00
  0.00000000E+00  0.00000000E+00  0.00000000E+00  0.00000000E+00  0.00000000E+00
  0.00000000E+00  0.00000000E+00  0.00000000E+00  0.00000000E+00  0.00000000E+00
  0.00000000E+00  0.00000000E+00  0.00000000E+00  0.00000000E+00  0.00000000E+00
  0.00000000E+00  0.00000000E+00  0.00000000E+00  0.00000000E+00  0.00000000E+00
  0.00000000E+00  0.00000000E+00  0.00000000E+00  0.00000000E+00  0.00000000E+00
  0.00000000E+00  0.00000000E+00  0.00000000E+00  0.00000000E+00  0.00000000E+00
  0.00000000E+00  0.00000000E+00  0.00000000E+00  0.00000000E+00  0.00000000E+00
  0.00000000E+00  0.00000000E+00  0.00000000E+00  0.00000000E+00  0.00000000E+00
  0.00000000E+00  0.00000000E+00  0.00000000E+00  0.00000000E+00  0.00000000E+00
  0.00000000E+00  0.00000000E+00  0.00000000E+00  0.00000000E+00  0.00000000E+00
  0.00000000E+00  0.00000000E+00  0.00000000E+00  0.00000000E+00  0.00000000E+00
  0.00000000E+00  0.00000000E+00  0.00000000E+00  0.00000000E+00  0.00000000E+00
  0.00000000E+00  0.00000000E+00  0.00000000E+00  0.00000000E+00  0.00000000E+00
  0.00000000E+00  0.00000000E+00  0.00000000E+00
MO    7                     OCC NO =   1.00000000 ORB. ENERGY = -18.91144169
  0.00000000E+00  0.00000000E+00  0.00000000E+00  0.00000000E+00  0.00000000E+00
  0.00000000E+00  0.00000000E+00  0.00000000E+00  0.00000000E+00  0.00000000E+00
  0.00000000E+00  0.00000000E+00  0.00000000E+00  0.00000000E+00  0.00000000E+00
  0.00000000E+00  0.00000000E+00  0.00000000E+00  0.00000000E+00  0.00000000E+00
  0.00000000E+00  0.00000000E+00  0.00000000E+00  0.00000000E+00  0.00000000E+00
  0.00000000E+00  1.92684932E+01  0.00000000E+00  0.00000000E+00  1.66839792E+01
  0.00000000E+00  0.00000000E+00  2.15172022E+01  0.00000000E+00  0.00000000E+00
  2.82599759E+01  0.00000000E+00  0.00000000E+00  3.30212378E+01  0.00000000E+00
  0.00000000E+00  3.34513194E+01  0.00000000E+00  0.00000000E+00  2.79558885E+01
  0.00000000E+00  0.00000000E+00  1.67377196E+01  0.00000000E+00  0.00000000E+00
  5.69214023E+00  0.00000000E+00  0.00000000E+00  6.32990086E-01  0.00000000E+00
  0.00000000E+00 -5.99612504E-02  0.00000000E+00  0.00000000E+00 -8.99514910E-03
  0.00000000E+00  0.00000000E+00 -1.06756010E-02  0.00000000E+00  0.00000000E+00
  1.48079005E-02  0.00000000E+00  0.00000000E+00  1.19488600E-02  0.00000000E+00
  0.00000000E+00  3.65389604E-03  0.00000000E+00  0.00000000E+00 -1.88084589E-03
  0.00000000E+00  0.00000000E+00  5.91828365E-04  0.00000000E+00  0.00000000E+00
 -1.28577890E-04  0.00000000E+00  0.00000000E+00  1.57802081E-05  0.00000000E+00
  0.00000000E+00  0.00000000E+00  0.00000000E+00  0.00000000E+00  0.00000000E+00
  0.00000000E+00  0.00000000E+00  0.00000000E+00  0.00000000E+00  0.00000000E+00
  0.00000000E+00  0.00000000E+00  0.00000000E+00  0.00000000E+00  0.00000000E+00
  0.00000000E+00  0.00000000E+00  0.00000000E+00  0.00000000E+00  0.00000000E+00
  0.00000000E+00  0.00000000E+00  0.00000000E+00  0.00000000E+00  0.00000000E+00
  0.00000000E+00  0.00000000E+00  0.00000000E+00  0.00000000E+00  0.00000000E+00
  0.00000000E+00  0.00000000E+00  0.00000000E+00  0.00000000E+00  0.00000000E+00
  0.00000000E+00  0.00000000E+00  0.00000000E+00  0.00000000E+00  0.00000000E+00
  0.00000000E+00  0.00000000E+00  0.00000000E+00  0.00000000E+00  0.00000000E+00
  0.00000000E+00  0.00000000E+00  0.00000000E+00  0.00000000E+00  0.00000000E+00
  0.00000000E+00  0.00000000E+00  0.00000000E+00  0.00000000E+00  0.00000000E+00
  0.00000000E+00  0.00000000E+00  0.00000000E+00  0.00000000E+00  0.00000000E+00
  0.00000000E+00  0.00000000E+00  0.00000000E+00  0.00000000E+00  0.00000000E+00
  0.00000000E+00  0.00000000E+00  0.00000000E+00  0.00000000E+00  0.00000000E+00
  0.00000000E+00  0.00000000E+00  0.00000000E+00  0.00000000E+00  0.00000000E+00
  0.00000000E+00  0.00000000E+00  0.00000000E+00  0.00000000E+00  0.00000000E+00
  0.00000000E+00  0.00000000E+00  0.00000000E+00  0.00000000E+00  0.00000000E+00
  0.00000000E+00  0.00000000E+00  0.00000000E+00  0.00000000E+00  0.00000000E+00
  0.00000000E+00  0.00000000E+00  0.00000000E+00  0.00000000E+00  0.00000000E+00
  0.00000000E+00  0.00000000E+00  0.00000000E+00
MO    8                     OCC NO =   1.00000000 ORB. ENERGY =  -1.79875697
  0.00000000E+00  0.00000000E+00  0.00000000E+00  0.00000000E+00  0.00000000E+00
  0.00000000E+00  0.00000000E+00  0.00000000E+00  0.00000000E+00  0.00000000E+00
  0.00000000E+00  0.00000000E+00  0.00000000E+00  0.00000000E+00  0.00000000E+00
  0.00000000E+00  0.00000000E+00  0.00000000E+00  0.00000000E+00  0.00000000E+00
  0.00000000E+00  0.00000000E+00  0.00000000E+00  0.00000000E+00 -7.07811682E+00
  0.00000000E+00  0.00000000E+00 -6.12871760E+00  0.00000000E+00  0.00000000E+00
 -7.90416092E+00  0.00000000E+00  0.00000000E+00 -1.03810614E+01  0.00000000E+00
  0.00000000E+00 -1.21300704E+01  0.00000000E+00  0.00000000E+00 -1.22880572E+01
  0.00000000E+00  0.00000000E+00 -1.02693574E+01  0.00000000E+00  0.00000000E+00
 -6.14845869E+00  0.00000000E+00  0.00000000E+00 -2.09095922E+00  0.00000000E+00
  0.00000000E+00 -2.32523515E-01  0.00000000E+00  0.00000000E+00  1.72384306E-01
  0.00000000E+00  0.00000000E+00 -8.30189563E-01  0.00000000E+00  0.00000000E+00
 -9.85283556E-01  0.00000000E+00  0.00000000E+00  1.36666600E+00  0.00000000E+00
  0.00000000E+00  1.10279649E+00  0.00000000E+00  0.00000000E+00  3.37229136E-01
  0.00000000E+00  0.00000000E+00  2.15000388E-02  0.00000000E+00  0.00000000E+00
  1.10324718E-03  0.00000000E+00  0.00000000E+00 -2.19246164E-04  0.00000000E+00
  0.00000000E+00  3.03226127E-05  0.00000000E+00  0.00000000E+00  0.00000000E+00
  0.00000000E+00  0.00000000E+00  0.00000000E+00  0.00000000E+00  0.00000000E+00
  0.00000000E+00  0.00000000E+00  0.00000000E+00  0.00000000E+00  0.00000000E+00
  0.00000000E+00  0.00000000E+00  0.00000000E+00  0.00000000E+00  0.00000000E+00
  0.00000000E+00  0.00000000E+00  0.00000000E+00  0.00000000E+00  0.00000000E+00
  0.00000000E+00  0.00000000E+00  0.00000000E+00  0.00000000E+00  0.00000000E+00
  0.00000000E+00  0.00000000E+00  0.00000000E+00  0.00000000E+00  0.00000000E+00
  0.00000000E+00  0.00000000E+00  0.00000000E+00  0.00000000E+00  0.00000000E+00
  0.00000000E+00  0.00000000E+00  0.00000000E+00  0.00000000E+00  0.00000000E+00
  0.00000000E+00  0.00000000E+00  0.00000000E+00  0.00000000E+00  0.00000000E+00
  0.00000000E+00  0.00000000E+00  0.00000000E+00  0.00000000E+00  0.00000000E+00
  0.00000000E+00  0.00000000E+00  0.00000000E+00  0.00000000E+00  0.00000000E+00
  0.00000000E+00  0.00000000E+00  0.00000000E+00  0.00000000E+00  0.00000000E+00
  0.00000000E+00  0.00000000E+00  0.00000000E+00  0.00000000E+00  0.00000000E+00
  0.00000000E+00  0.00000000E+00  0.00000000E+00  0.00000000E+00  0.00000000E+00
  0.00000000E+00  0.00000000E+00  0.00000000E+00  0.00000000E+00  0.00000000E+00
  0.00000000E+00  0.00000000E+00  0.00000000E+00  0.00000000E+00  0.00000000E+00
  0.00000000E+00  0.00000000E+00  0.00000000E+00  0.00000000E+00  0.00000000E+00
  0.00000000E+00  0.00000000E+00  0.00000000E+00  0.00000000E+00  0.00000000E+00
  0.00000000E+00  0.00000000E+00  0.00000000E+00  0.00000000E+00  0.00000000E+00
  0.00000000E+00  0.00000000E+00  0.00000000E+00
MO    9                     OCC NO =   1.00000000 ORB. ENERGY =  -1.79875697
  0.00000000E+00  0.00000000E+00  0.00000000E+00  0.00000000E+00  0.00000000E+00
  0.00000000E+00  0.00000000E+00  0.00000000E+00  0.00000000E+00  0.00000000E+00
  0.00000000E+00  0.00000000E+00  0.00000000E+00  0.00000000E+00  0.00000000E+00
  0.00000000E+00  0.00000000E+00  0.00000000E+00  0.00000000E+00  0.00000000E+00
  0.00000000E+00  0.00000000E+00  0.00000000E+00  0.00000000E+00  0.00000000E+00
 -7.07811682E+00  0.00000000E+00  0.00000000E+00 -6.12871760E+00  0.00000000E+00
  0.00000000E+00 -7.90416092E+00  0.00000000E+00  0.00000000E+00 -1.03810614E+01
  0.00000000E+00  0.00000000E+00 -1.21300704E+01  0.00000000E+00  0.00000000E+00
 -1.22880572E+01  0.00000000E+00  0.00000000E+00 -1.02693574E+01  0.00000000E+00
  0.00000000E+00 -6.14845869E+00  0.00000000E+00  0.00000000E+00 -2.09095922E+00
  0.00000000E+00  0.00000000E+00 -2.32523515E-01  0.00000000E+00  0.00000000E+00