atomref-proatoms Yb_q0_mult1_nist x2c-QZVPall
GAUSSIAN             70 MOL ORBITALS    437 PRIMITIVES        1 NUCLEI
  Yb   1    (CENTRE  1)   0.00000000  0.00000000  0.00000000  CHARGE = 70.0
CENTRE ASSIGNMENTS    1  1  1  1  1  1  1  1  1  1  1  1  1  1  1  1  1  1  1  1
CENTRE ASSIGNMENTS    1  1  1  1  1  1  1  1  1  1  1  1  1  1  1  1  1  1  1  1
CENTRE ASSIGNMENTS    1  1  1  1  1  1  1  1  1  1  1  1  1  1  1  1  1  1  1  1
CENTRE ASSIGNMENTS    1  1  1  1  1  1  1  1  1  1  1  1  1  1  1  1  1  1  1  1
CENTRE ASSIGNMENTS    1  1  1  1  1  1  1  1  1  1  1  1  1  1  1  1  1  1  1  1
CENTRE ASSIGNMENTS    1  1  1  1  1  1  1  1  1  1  1  1  1  1  1  1  1  1  1  1
CENTRE ASSIGNMENTS    1  1  1  1  1  1  1  1  1  1  1  1  1  1  1  1  1  1  1  1
CENTRE ASSIGNMENTS    1  1  1  1  1  1  1  1  1  1  1  1  1  1  1  1  1  1  1  1
CENTRE ASSIGNMENTS    1  1  1  1  1  1  1  1  1  1  1  1  1  1  1  1  1  1  1  1
CENTRE ASSIGNMENTS    1  1  1  1  1  1  1  1  1  1  1  1  1  1  1  1  1  1  1  1
CENTRE ASSIGNMENTS    1  1  1  1  1  1  1  1  1  1  1  1  1  1  1  1  1  1  1  1
CENTRE ASSIGNMENTS    1  1  1  1  1  1  1  1  1  1  1  1  1  1  1  1  1  1  1  1
CENTRE ASSIGNMENTS    1  1  1  1  1  1  1  1  1  1  1  1  1  1  1  1  1  1  1  1
CENTRE ASSIGNMENTS    1  1  1  1  1  1  1  1  1  1  1  1  1  1  1  1  1  1  1  1
CENTRE ASSIGNMENTS    1  1  1  1  1  1  1  1  1  1  1  1  1  1  1  1  1  1  1  1
CENTRE ASSIGNMENTS    1  1  1  1  1  1  1  1  1  1  1  1  1  1  1  1  1  1  1  1
CENTRE ASSIGNMENTS    1  1  1  1  1  1  1  1  1  1  1  1  1  1  1  1  1  1  1  1
CENTRE ASSIGNMENTS    1  1  1  1  1  1  1  1  1  1  1  1  1  1  1  1  1  1  1  1
CENTRE ASSIGNMENTS    1  1  1  1  1  1  1  1  1  1  1  1  1  1  1  1  1  1  1  1
CENTRE ASSIGNMENTS    1  1  1  1  1  1  1  1  1  1  1  1  1  1  1  1  1  1  1  1
CENTRE ASSIGNMENTS    1  1  1  1  1  1  1  1  1  1  1  1  1  1  1  1  1  1  1  1
CENTRE ASSIGNMENTS    1  1  1  1  1  1  1  1  1  1  1  1  1  1  1  1  1
TYPE ASSIGNMENTS      1  1  1  1  1  1  1  1  1  1  1  1  1  1  1  1  1  1  1  1
TYPE ASSIGNMENTS      1  1  1  1  1  1  1  1  1  1  2  3  4  2  3  4  2  3  4  2
TYPE ASSIGNMENTS      3  4  2  3  4  2  3  4  2  3  4  2  3  4  2  3  4  2  3  4
TYPE ASSIGNMENTS      2  3  4  2  3  4  2  3  4  2  3  4  2  3  4  2  3  4  2  3
TYPE ASSIGNMENTS      4  2  3  4  2  3  4  2  3  4  2  3  4  2  3  4  2  3  4  2
TYPE ASSIGNMENTS      3  4  2  3  4  2  3  4  2  3  4  2  3  4  2  3  4  2  3  4
TYPE ASSIGNMENTS      2  3  4  2  3  4  2  3  4  2  3  4  5  8  9  6 10  7  5  8
TYPE ASSIGNMENTS      9  6 10  7  5  8  9  6 10  7  5  8  9  6 10  7  5  8  9  6
TYPE ASSIGNMENTS     10  7  5  8  9  6 10  7  5  8  9  6 10  7  5  8  9  6 10  7
TYPE ASSIGNMENTS      5  8  9  6 10  7  5  8  9  6 10  7  5  8  9  6 10  7  5  8
TYPE ASSIGNMENTS      9  6 10  7  5  8  9  6 10  7  5  8  9  6 10  7  5  8  9  6
TYPE ASSIGNMENTS     10  7  5  8  9  6 10  7  5  8  9  6 10  7  5  8  9  6 10  7
TYPE ASSIGNMENTS      5  8  9  6 10  7  5  8  9  6 10  7 11 14 15 17 20 18 12 16
TYPE ASSIGNMENTS     19 13 11 14 15 17 20 18 12 16 19 13 11 14 15 17 20 18 12 16
TYPE ASSIGNMENTS     19 13 11 14 15 17 20 18 12 16 19 13 11 14 15 17 20 18 12 16
TYPE ASSIGNMENTS     19 13 11 14 15 17 20 18 12 16 19 13 11 14 15 17 20 18 12 16
TYPE ASSIGNMENTS     19 13 11 14 15 17 20 18 12 16 19 13 11 14 15 17 20 18 12 16
TYPE ASSIGNMENTS     19 13 11 14 15 17 20 18 12 16 19 13 11 14 15 17 20 18 12 16
TYPE ASSIGNMENTS     19 13 21 24 25 30 33 31 26 34 35 28 22 27 32 29 23 21 24 25
TYPE ASSIGNMENTS     30 33 31 26 34 35 28 22 27 32 29 23 21 24 25 30 33 31 26 34
TYPE ASSIGNMENTS     35 28 22 27 32 29 23 21 24 25 30 33 31 26 34 35 28 22 27 32
TYPE ASSIGNMENTS     29 23 21 24 25 30 33 31 26 34 35 28 22 27 32 29 23
EXPONENTS  7.3081509E+07 1.9916954E+07 5.9153114E+06 1.8260383E+06 6.0780223E+05
EXPONENTS  2.1393484E+05 8.0175666E+04 3.2073116E+04 1.3450977E+04 6.1237290E+03
EXPONENTS  2.8508151E+03 1.2077535E+03 6.2302908E+04 1.4708263E+04 4.4860786E+03
EXPONENTS  1.6649246E+03 6.4264651E+02 4.4858576E+02 1.6261429E+02 8.0939315E+01
EXPONENTS  4.3308032E+01 2.2181765E+01 1.1382397E+01 5.6718429E+00 2.8031541E+00
EXPONENTS  1.2897656E+00 5.9443485E-01 2.5381274E-01 8.8122199E-02 3.2636021E-02
EXPONENTS  2.2660000E+02 2.2660000E+02 2.2660000E+02 6.1108448E+06 6.1108448E+06
EXPONENTS  6.1108448E+06 1.6233771E+06 1.6233771E+06 1.6233771E+06 4.6079960E+05
EXPONENTS  4.6079960E+05 4.6079960E+05 1.3975885E+05 1.3975885E+05 1.3975885E+05
EXPONENTS  4.5291953E+04 4.5291953E+04 4.5291953E+04 1.5683295E+04 1.5683295E+04
EXPONENTS  1.5683295E+04 5.8026730E+03 5.8026730E+03 5.8026730E+03 2.2944010E+03
EXPONENTS  2.2944010E+03 2.2944010E+03 9.5041587E+02 9.5041587E+02 9.5041587E+02
EXPONENTS  4.2339865E+02 4.2339865E+02 4.2339865E+02 2.0162327E+02 2.0162327E+02
EXPONENTS  2.0162327E+02 1.0047829E+02 1.0047829E+02 1.0047829E+02 5.0058067E+01
EXPONENTS  5.0058067E+01 5.0058067E+01 1.5282794E+03 1.5282794E+03 1.5282794E+03
EXPONENTS  5.2835816E+02 5.2835816E+02 5.2835816E+02 2.3524108E+02 2.3524108E+02
EXPONENTS  2.3524108E+02 5.8485681E+01 5.8485681E+01 5.8485681E+01 3.0419705E+01
EXPONENTS  3.0419705E+01 3.0419705E+01 1.5628372E+01 1.5628372E+01 1.5628372E+01
EXPONENTS  6.9193879E+00 6.9193879E+00 6.9193879E+00 8.2828124E+01 8.2828124E+01
EXPONENTS  8.2828124E+01 3.1557002E+01 3.1557002E+01 3.1557002E+01 9.4085700E+00
EXPONENTS  9.4085700E+00 9.4085700E+00 5.0532835E+00 5.0532835E+00 5.0532835E+00
EXPONENTS  2.5251544E+00 2.5251544E+00 2.5251544E+00 4.6476050E+00 4.6476050E+00
EXPONENTS  4.6476050E+00 1.5064502E+00 1.5064502E+00 1.5064502E+00 8.0347422E-01
EXPONENTS  8.0347422E-01 8.0347422E-01 9.2888798E-01 9.2888798E-01 9.2888798E-01
EXPONENTS  3.7464129E-01 3.7464129E-01 3.7464129E-01 1.6069210E-01 1.6069210E-01
EXPONENTS  1.6069210E-01 8.4482236E-02 8.4482236E-02 8.4482236E-02 2.5661871E-02
EXPONENTS  2.5661871E-02 2.5661871E-02 5.2744564E+03 5.2744564E+03 5.2744564E+03
EXPONENTS  5.2744564E+03 5.2744564E+03 5.2744564E+03 1.5178967E+03 1.5178967E+03
EXPONENTS  1.5178967E+03 1.5178967E+03 1.5178967E+03 1.5178967E+03 5.8959764E+02
EXPONENTS  5.8959764E+02 5.8959764E+02 5.8959764E+02 5.8959764E+02 5.8959764E+02
EXPONENTS  2.6075539E+02 2.6075539E+02 2.6075539E+02 2.6075539E+02 2.6075539E+02
EXPONENTS  2.6075539E+02 1.2539433E+02 1.2539433E+02 1.2539433E+02 1.2539433E+02
EXPONENTS  1.2539433E+02 1.2539433E+02 6.2821768E+01 6.2821768E+01 6.2821768E+01
EXPONENTS  6.2821768E+01 6.2821768E+01 6.2821768E+01 3.1771112E+01 3.1771112E+01
EXPONENTS  3.1771112E+01 3.1771112E+01 3.1771112E+01 3.1771112E+01 1.6037825E+01
EXPONENTS  1.6037825E+01 1.6037825E+01 1.6037825E+01 1.6037825E+01 1.6037825E+01
EXPONENTS  3.2000000E+01 3.2000000E+01 3.2000000E+01 3.2000000E+01 3.2000000E+01
EXPONENTS  3.2000000E+01 2.7679027E+02 2.7679027E+02 2.7679027E+02 2.7679027E+02
EXPONENTS  2.7679027E+02 2.7679027E+02 9.8990200E+01 9.8990200E+01 9.8990200E+01
EXPONENTS  9.8990200E+01 9.8990200E+01 9.8990200E+01 2.0170310E+01 2.0170310E+01
EXPONENTS  2.0170310E+01 2.0170310E+01 2.0170310E+01 2.0170310E+01 7.6295188E+00
EXPONENTS  7.6295188E+00 7.6295188E+00 7.6295188E+00 7.6295188E+00 7.6295188E+00
EXPONENTS  1.1928758E+01 1.1928758E+01 1.1928758E+01 1.1928758E+01 1.1928758E+01
EXPONENTS  1.1928758E+01 4.2953479E+00 4.2953479E+00 4.2953479E+00 4.2953479E+00
EXPONENTS  4.2953479E+00 4.2953479E+00 2.1535599E+00 2.1535599E+00 2.1535599E+00
EXPONENTS  2.1535599E+00 2.1535599E+00 2.1535599E+00 9.2805707E-01 9.2805707E-01
EXPONENTS  9.2805707E-01 9.2805707E-01 9.2805707E-01 9.2805707E-01 3.7805511E-01
EXPONENTS  3.7805511E-01 3.7805511E-01 3.7805511E-01 3.7805511E-01 3.7805511E-01
EXPONENTS  1.4659801E-01 1.4659801E-01 1.4659801E-01 1.4659801E-01 1.4659801E-01
EXPONENTS  1.4659801E-01 5.2806399E-02 5.2806399E-02 5.2806399E-02 5.2806399E-02
EXPONENTS  5.2806399E-02 5.2806399E-02 2.6490678E+02 2.6490678E+02 2.6490678E+02
EXPONENTS  2.6490678E+02 2.6490678E+02 2.6490678E+02 2.6490678E+02 2.6490678E+02
EXPONENTS  2.6490678E+02 2.6490678E+02 1.0824783E+02 1.0824783E+02 1.0824783E+02
EXPONENTS  1.0824783E+02 1.0824783E+02 1.0824783E+02 1.0824783E+02 1.0824783E+02
EXPONENTS  1.0824783E+02 1.0824783E+02 5.5013633E+01 5.5013633E+01 5.5013633E+01
EXPONENTS  5.5013633E+01 5.5013633E+01 5.5013633E+01 5.5013633E+01 5.5013633E+01
EXPONENTS  5.5013633E+01 5.5013633E+01 2.7912255E+01 2.7912255E+01 2.7912255E+01
EXPONENTS  2.7912255E+01 2.7912255E+01 2.7912255E+01 2.7912255E+01 2.7912255E+01
EXPONENTS  2.7912255E+01 2.7912255E+01 1.4060669E+01 1.4060669E+01 1.4060669E+01
EXPONENTS  1.4060669E+01 1.4060669E+01 1.4060669E+01 1.4060669E+01 1.4060669E+01
EXPONENTS  1.4060669E+01 1.4060669E+01 7.0757734E+00 7.0757734E+00 7.0757734E+00
EXPONENTS  7.0757734E+00 7.0757734E+00 7.0757734E+00 7.0757734E+00 7.0757734E+00
EXPONENTS  7.0757734E+00 7.0757734E+00 3.5188212E+00 3.5188212E+00 3.5188212E+00
EXPONENTS  3.5188212E+00 3.5188212E+00 3.5188212E+00 3.5188212E+00 3.5188212E+00
EXPONENTS  3.5188212E+00 3.5188212E+00 1.6919924E+00 1.6919924E+00 1.6919924E+00
EXPONENTS  1.6919924E+00 1.6919924E+00 1.6919924E+00 1.6919924E+00 1.6919924E+00
EXPONENTS  1.6919924E+00 1.6919924E+00 7.6960958E-01 7.6960958E-01 7.6960958E-01
EXPONENTS  7.6960958E-01 7.6960958E-01 7.6960958E-01 7.6960958E-01 7.6960958E-01
EXPONENTS  7.6960958E-01 7.6960958E-01 3.1220223E-01 3.1220223E-01 3.1220223E-01
EXPONENTS  3.1220223E-01 3.1220223E-01 3.1220223E-01 3.1220223E-01 3.1220223E-01
EXPONENTS  3.1220223E-01 3.1220223E-01 1.0400000E-01 1.0400000E-01 1.0400000E-01
EXPONENTS  1.0400000E-01 1.0400000E-01 1.0400000E-01 1.0400000E-01 1.0400000E-01
EXPONENTS  1.0400000E-01 1.0400000E-01 2.2874100E+01 2.2874100E+01 2.2874100E+01
EXPONENTS  2.2874100E+01 2.2874100E+01 2.2874100E+01 2.2874100E+01 2.2874100E+01
EXPONENTS  2.2874100E+01 2.2874100E+01 2.2874100E+01 2.2874100E+01 2.2874100E+01
EXPONENTS  2.2874100E+01 2.2874100E+01 1.0502500E+01 1.0502500E+01 1.0502500E+01
EXPONENTS  1.0502500E+01 1.0502500E+01 1.0502500E+01 1.0502500E+01 1.0502500E+01
EXPONENTS  1.0502500E+01 1.0502500E+01 1.0502500E+01 1.0502500E+01 1.0502500E+01
EXPONENTS  1.0502500E+01 1.0502500E+01 4.7872000E+00 4.7872000E+00 4.7872000E+00
EXPONENTS  4.7872000E+00 4.7872000E+00 4.7872000E+00 4.7872000E+00 4.7872000E+00
EXPONENTS  4.7872000E+00 4.7872000E+00 4.7872000E+00 4.7872000E+00 4.7872000E+00
EXPONENTS  4.7872000E+00 4.7872000E+00 2.1088000E+00 2.1088000E+00 2.1088000E+00
EXPONENTS  2.1088000E+00 2.1088000E+00 2.1088000E+00 2.1088000E+00 2.1088000E+00
EXPONENTS  2.1088000E+00 2.1088000E+00 2.1088000E+00 2.1088000E+00 2.1088000E+00
EXPONENTS  2.1088000E+00 2.1088000E+00 5.1326000E-01 5.1326000E-01 5.1326000E-01
EXPONENTS  5.1326000E-01 5.1326000E-01 5.1326000E-01 5.1326000E-01 5.1326000E-01
EXPONENTS  5.1326000E-01 5.1326000E-01 5.1326000E-01 5.1326000E-01 5.1326000E-01
EXPONENTS  5.1326000E-01 5.1326000E-01
MO    1                     OCC NO =   1.00000000 ORB. ENERGY = -2249.60531463
  1.39463525E+02  1.42918231E+02  1.27301765E+02  1.08571383E+02  9.39280202E+01
  8.52055355E+01  7.71001453E+01  7.46967447E+01  7.13380394E+01  6.30995186E+01
  5.87857660E+01  3.95798759E+01  2.08464075E+00  4.98355681E+00  1.05834444E+01
  1.65358792E+01  1.36367675E+01  8.88939911E+00  1.11722478E+00 -3.76024139E-01
  1.75101996E-01 -7.01927562E-02  2.71244627E-02 -9.54639308E-03  3.10936248E-03
 -8.84802267E-04  2.42704144E-04 -5.07879751E-05  7.76153211E-06 -1.06032261E-06
  0.00000000E+00  0.00000000E+00  0.00000000E+00  0.00000000E+00  0.00000000E+00
  0.00000000E+00  0.00000000E+00  0.00000000E+00  0.00000000E+00  0.00000000E+00
  0.00000000E+00  0.00000000E+00  0.00000000E+00  0.00000000E+00  0.00000000E+00
  0.00000000E+00  0.00000000E+00  0.00000000E+00  0.00000000E+00  0.00000000E+00
  0.00000000E+00  0.00000000E+00  0.00000000E+00  0.00000000E+00  0.00000000E+00
  0.00000000E+00  0.00000000E+00  0.00000000E+00  0.00000000E+00  0.00000000E+00
  0.00000000E+00  0.00000000E+00  0.00000000E+00  0.00000000E+00  0.00000000E+00
  0.00000000E+00  0.00000000E+00  0.00000000E+00  0.00000000E+00  0.00000000E+00
  0.00000000E+00  0.00000000E+00  0.00000000E+00  0.00000000E+00  0.00000000E+00
  0.00000000E+00  0.00000000E+00  0.00000000E+00  0.00000000E+00  0.00000000E+00
  0.00000000E+00  0.00000000E+00  0.00000000E+00  0.00000000E+00  0.00000000E+00
  0.00000000E+00  0.00000000E+00  0.00000000E+00  0.00000000E+00  0.00000000E+00
  0.00000000E+00  0.00000000E+00  0.00000000E+00  0.00000000E+00  0.00000000E+00
  0.00000000E+00  0.00000000E+00  0.00000000E+00  0.00000000E+00  0.00000000E+00
  0.00000000E+00  0.00000000E+00  0.00000000E+00  0.00000000E+00  0.00000000E+00
  0.00000000E+00  0.00000000E+00  0.00000000E+00  0.00000000E+00  0.00000000E+00
  0.00000000E+00  0.00000000E+00  0.00000000E+00  0.00000000E+00  0.00000000E+00
  0.00000000E+00  0.00000000E+00  0.00000000E+00  0.00000000E+00  0.00000000E+00
  0.00000000E+00  0.00000000E+00  0.00000000E+00  0.00000000E+00  0.00000000E+00
  0.00000000E+00  0.00000000E+00  0.00000000E+00  0.00000000E+00  0.00000000E+00
  0.00000000E+00  0.00000000E+00  0.00000000E+00  0.00000000E+00  0.00000000E+00
  0.00000000E+00  0.00000000E+00  0.00000000E+00  0.00000000E+00  0.00000000E+00
  0.00000000E+00  0.00000000E+00  0.00000000E+00  0.00000000E+00  0.00000000E+00
  0.00000000E+00  0.00000000E+00  0.00000000E+00  0.00000000E+00  0.00000000E+00
  0.00000000E+00  0.00000000E+00  0.00000000E+00  0.00000000E+00  0.00000000E+00
  0.00000000E+00  0.00000000E+00  0.00000000E+00  0.00000000E+00  0.00000000E+00
  0.00000000E+00  0.00000000E+00  0.00000000E+00  0.00000000E+00  0.00000000E+00
  0.00000000E+00  0.00000000E+00  0.00000000E+00  0.00000000E+00  0.00000000E+00
  0.00000000E+00  0.00000000E+00  0.00000000E+00  0.00000000E+00  0.00000000E+00
  0.00000000E+00  0.00000000E+00  0.00000000E+00  0.00000000E+00  0.00000000E+00
  0.00000000E+00  0.00000000E+00  0.00000000E+00  0.00000000E+00  0.00000000E+00
  0.00000000E+00  0.00000000E+00  0.00000000E+00  0.00000000E+00  0.00000000E+00
  0.00000000E+00  0.00000000E+00  0.00000000E+00  0.00000000E+00  0.00000000E+00
  0.00000000E+00  0.00000000E+00  0.00000000E+00  0.00000000E+00  0.00000000E+00
  0.00000000E+00  0.00000000E+00  0.00000000E+00  0.00000000E+00  0.00000000E+00
  0.00000000E+00  0.00000000E+00  0.00000000E+00  0.00000000E+00  0.00000000E+00
  0.00000000E+00  0.00000000E+00  0.00000000E+00  0.00000000E+00  0.00000000E+00
  0.00000000E+00  0.00000000E+00  0.00000000E+00  0.00000000E+00  0.00000000E+00
  0.00000000E+00  0.00000000E+00  0.00000000E+00  0.00000000E+00  0.00000000E+00
  0.00000000E+00  0.00000000E+00  0.00000000E+00  0.00000000E+00  0.00000000E+00
  0.00000000E+00  0.00000000E+00  0.00000000E+00  0.00000000E+00  0.00000000E+00
  0.00000000E+00  0.00000000E+00  0.00000000E+00  0.00000000E+00  0.00000000E+00
  0.00000000E+00  0.00000000E+00  0.00000000E+00  0.00000000E+00  0.00000000E+00
  0.00000000E+00  0.00000000E+00  0.00000000E+00  0.00000000E+00  0.00000000E+00
  0.00000000E+00  0.00000000E+00  0.00000000E+00  0.00000000E+00  0.00000000E+00
  0.00000000E+00  0.00000000E+00  0.00000000E+00  0.00000000E+00  0.00000000E+00
  0.00000000E+00  0.00000000E+00  0.00000000E+00  0.00000000E+00  0.00000000E+00
  0.00000000E+00  0.00000000E+00  0.00000000E+00  0.00000000E+00  0.00000000E+00
  0.00000000E+00  0.00000000E+00  0.00000000E+00  0.00000000E+00  0.00000000E+00
  0.00000000E+00  0.00000000E+00  0.00000000E+00  0.00000000E+00  0.00000000E+00
  0.00000000E+00  0.00000000E+00  0.00000000E+00  0.00000000E+00  0.00000000E+00
  0.00000000E+00  0.00000000E+00  0.00000000E+00  0.00000000E+00  0.00000000E+00
  0.00000000E+00  0.00000000E+00  0.00000000E+00  0.00000000E+00  0.00000000E+00
  0.00000000E+00  0.00000000E+00  0.00000000E+00  0.00000000E+00  0.00000000E+00
  0.00000000E+00  0.00000000E+00  0.00000000E+00  0.00000000E+00  0.00000000E+00
  0.00000000E+00  0.00000000E+00  0.00000000E+00  0.00000000E+00  0.00000000E+00
  0.00000000E+00  0.00000000E+00  0.00000000E+00  0.00000000E+00  0.00000000E+00
  0.00000000E+00  0.00000000E+00  0.00000000E+00  0.00000000E+00  0.00000000E+00
  0.00000000E+00  0.00000000E+00  0.00000000E+00  0.00000000E+00  0.00000000E+00
  0.00000000E+00  0.00000000E+00  0.00000000E+00  0.00000000E+00  0.00000000E+00
  0.00000000E+00  0.00000000E+00  0.00000000E+00  0.00000000E+00  0.00000000E+00
  0.00000000E+00  0.00000000E+00  0.00000000E+00  0.00000000E+00  0.00000000E+00
  0.00000000E+00  0.00000000E+00  0.00000000E+00  0.00000000E+00  0.00000000E+00
  0.00000000E+00  0.00000000E+00  0.00000000E+00  0.00000000E+00  0.00000000E+00
  0.00000000E+00  0.00000000E+00  0.00000000E+00  0.00000000E+00  0.00000000E+00
  0.00000000E+00  0.00000000E+00  0.00000000E+00  0.00000000E+00  0.00000000E+00
  0.00000000E+00  0.00000000E+00  0.00000000E+00  0.00000000E+00  0.00000000E+00
  0.00000000E+00  0.00000000E+00  0.00000000E+00  0.00000000E+00  0.00000000E+00
  0.00000000E+00  0.00000000E+00  0.00000000E+00  0.00000000E+00  0.00000000E+00
  0.00000000E+00  0.00000000E+00  0.00000000E+00  0.00000000E+00  0.00000000E+00
  0.00000000E+00  0.00000000E+00  0.00000000E+00  0.00000000E+00  0.00000000E+00
  0.00000000E+00  0.00000000E+00  0.00000000E+00  0.00000000E+00  0.00000000E+00
  0.00000000E+00  0.00000000E+00  0.00000000E+00  0.00000000E+00  0.00000000E+00
  0.00000000E+00  0.00000000E+00  0.00000000E+00  0.00000000E+00  0.00000000E+00
  0.00000000E+00  0.00000000E+00  0.00000000E+00  0.00000000E+00  0.00000000E+00
  0.00000000E+00  0.00000000E+00  0.00000000E+00  0.00000000E+00  0.00000000E+00
  0.00000000E+00  0.00000000E+00  0.00000000E+00  0.00000000E+00  0.00000000E+00
  0.00000000E+00  0.00000000E+00  0.00000000E+00  0.00000000E+00  0.00000000E+00
  0.00000000E+00  0.00000000E+00  0.00000000E+00  0.00000000E+00  0.00000000E+00
  0.00000000E+00  0.00000000E+00  0.00000000E+00  0.00000000E+00  0.00000000E+00
  0.00000000E+00  0.00000000E+00  0.00000000E+00  0.00000000E+00  0.00000000E+00
  0.00000000E+00  0.00000000E+00
MO    2                     OCC NO =   1.00000000 ORB. ENERGY = -382.33146077
 -5.30272063E+01 -5.43407640E+01 -4.84030282E+01 -4.12813106E+01 -3.57135709E+01
 -3.23970837E+01 -2.93152299E+01 -2.84014023E+01 -2.71243461E+01 -2.39918730E+01
 -2.23516861E+01 -1.50491696E+01 -2.00824800E+00 -4.80093176E+00 -1.01956086E+01
 -1.59299132E+01 -1.73466955E+01  4.85079021E+00  1.63475004E+01  9.28068560E+00
  1.46248890E+00  4.55933982E-02 -2.05632582E-03  2.05116177E-04 -5.62941613E-05
  6.88053828E-06 -2.06518153E-07  5.00792577E-08  5.70805227E-09 -1.22967945E-09
  0.00000000E+00  0.00000000E+00  0.00000000E+00  0.00000000E+00  0.00000000E+00
  0.00000000E+00  0.00000000E+00  0.00000000E+00  0.00000000E+00  0.00000000E+00
  0.00000000E+00  0.00000000E+00  0.00000000E+00  0.00000000E+00  0.00000000E+00
  0.00000000E+00  0.00000000E+00  0.00000000E+00  0.00000000E+00  0.00000000E+00
  0.00000000E+00  0.00000000E+00  0.00000000E+00  0.00000000E+00  0.00000000E+00
  0.00000000E+00  0.00000000E+00  0.00000000E+00  0.00000000E+00  0.00000000E+00
  0.00000000E+00  0.00000000E+00  0.00000000E+00  0.00000000E+00  0.00000000E+00
  0.00000000E+00  0.00000000E+00  0.00000000E+00  0.00000000E+00  0.00000000E+00
  0.00000000E+00  0.00000000E+00  0.00000000E+00  0.00000000E+00  0.00000000E+00
  0.00000000E+00  0.00000000E+00  0.00000000E+00  0.00000000E+00  0.00000000E+00
  0.00000000E+00  0.00000000E+00  0.00000000E+00  0.00000000E+00  0.00000000E+00
  0.00000000E+00  0.00000000E+00  0.00000000E+00  0.00000000E+00  0.00000000E+00
  0.00000000E+00  0.00000000E+00  0.00000000E+00  0.00000000E+00  0.00000000E+00
  0.00000000E+00  0.00000000E+00  0.00000000E+00  0.00000000E+00  0.00000000E+00
  0.00000000E+00  0.00000000E+00  0.00000000E+00  0.00000000E+00  0.00000000E+00
  0.00000000E+00  0.00000000E+00  0.00000000E+00  0.00000000E+00  0.00000000E+00
  0.00000000E+00  0.00000000E+00  0.00000000E+00  0.00000000E+00  0.00000000E+00
  0.00000000E+00  0.00000000E+00  0.00000000E+00  0.00000000E+00  0.00000000E+00
  0.00000000E+00  0.00000000E+00  0.00000000E+00  0.00000000E+00  0.00000000E+00
  0.00000000E+00  0.00000000E+00  0.00000000E+00  0.00000000E+00  0.00000000E+00
  0.00000000E+00  0.00000000E+00  0.00000000E+00  0.00000000E+00  0.00000000E+00
  0.00000000E+00  0.00000000E+00  0.00000000E+00  0.00000000E+00  0.00000000E+00
  0.00000000E+00  0.00000000E+00  0.00000000E+00  0.00000000E+00  0.00000000E+00
  0.00000000E+00  0.00000000E+00  0.00000000E+00  0.00000000E+00  0.00000000E+00
  0.00000000E+00  0.00000000E+00  0.00000000E+00  0.00000000E+00  0.00000000E+00
  0.00000000E+00  0.00000000E+00  0.00000000E+00  0.00000000E+00  0.00000000E+00
  0.00000000E+00  0.00000000E+00  0.00000000E+00  0.00000000E+00  0.00000000E+00
  0.00000000E+00  0.00000000E+00  0.00000000E+00  0.00000000E+00  0.00000000E+00
  0.00000000E+00  0.00000000E+00  0.00000000E+00  0.00000000E+00  0.00000000E+00
  0.00000000E+00  0.00000000E+00  0.00000000E+00  0.00000000E+00  0.00000000E+00
  0.00000000E+00  0.00000000E+00  0.00000000E+00  0.00000000E+00  0.00000000E+00
  0.00000000E+00  0.00000000E+00  0.00000000E+00  0.00000000E+00  0.00000000E+00
  0.00000000E+00  0.00000000E+00  0.00000000E+00  0.00000000E+00  0.00000000E+00
  0.00000000E+00  0.00000000E+00  0.00000000E+00  0.00000000E+00  0.00000000E+00
  0.00000000E+00  0.00000000E+00  0.00000000E+00  0.00000000E+00  0.00000000E+00
  0.00000000E+00  0.00000000E+00  0.00000000E+00  0.00000000E+00  0.00000000E+00
  0.00000000E+00  0.00000000E+00  0.00000000E+00  0.00000000E+00  0.00000000E+00
  0.00000000E+00  0.00000000E+00  0.00000000E+00  0.00000000E+00  0.00000000E+00
  0.00000000E+00  0.00000000E+00  0.00000000E+00  0.00000000E+00  0.00000000E+00
  0.00000000E+00  0.00000000E+00  0.00000000E+00  0.00000000E+00  0.00000000E+00
  0.00000000E+00  0.00000000E+00  0.00000000E+00  0.00000000E+00  0.00000000E+00
  0.00000000E+00  0.00000000E+00  0.00000000E+00  0.00000000E+00  0.00000000E+00
  0.00000000E+00  0.00000000E+00  0.00000000E+00  0.00000000E+00  0.00000000E+00
  0.00000000E+00  0.00000000E+00  0.00000000E+00  0.00000000E+00  0.00000000E+00
  0.00000000E+00  0.00000000E+00  0.00000000E+00  0.00000000E+00  0.00000000E+00
  0.00000000E+00  0.00000000E+00  0.00000000E+00  0.00000000E+00  0.00000000E+00
  0.00000000E+00  0.00000000E+00  0.00000000E+00  0.00000000E+00  0.00000000E+00
  0.00000000E+00  0.00000000E+00  0.00000000E+00  0.00000000E+00  0.00000000E+00
  0.00000000E+00  0.00000000E+00  0.00000000E+00  0.00000000E+00  0.00000000E+00
  0.00000000E+00  0.00000000E+00  0.00000000E+00  0.00000000E+00  0.00000000E+00
  0.00000000E+00  0.00000000E+00  0.00000000E+00  0.00000000E+00  0.00000000E+00
  0.00000000E+00  0.00000000E+00  0.00000000E+00  0.00000000E+00  0.00000000E+00
  0.00000000E+00  0.00000000E+00  0.00000000E+00  0.00000000E+00  0.00000000E+00
  0.00000000E+00  0.00000000E+00  0.00000000E+00  0.00000000E+00  0.00000000E+00
  0.00000000E+00  0.00000000E+00  0.00000000E+00  0.00000000E+00  0.00000000E+00
  0.00000000E+00  0.00000000E+00  0.00000000E+00  0.00000000E+00  0.00000000E+00
  0.00000000E+00  0.00000000E+00  0.00000000E+00  0.00000000E+00  0.00000000E+00
  0.00000000E+00  0.00000000E+00  0.00000000E+00  0.00000000E+00  0.00000000E+00
  0.00000000E+00  0.00000000E+00  0.00000000E+00  0.00000000E+00  0.00000000E+00
  0.00000000E+00  0.00000000E+00  0.00000000E+00  0.00000000E+00  0.00000000E+00
  0.00000000E+00  0.00000000E+00  0.00000000E+00  0.00000000E+00  0.00000000E+00
  0.00000000E+00  0.00000000E+00  0.00000000E+00  0.00000000E+00  0.00000000E+00
  0.00000000E+00  0.00000000E+00  0.00000000E+00  0.00000000E+00  0.00000000E+00
  0.00000000E+00  0.00000000E+00  0.00000000E+00  0.00000000E+00  0.00000000E+00
  0.00000000E+00  0.00000000E+00  0.00000000E+00  0.00000000E+00  0.00000000E+00
  0.00000000E+00  0.00000000E+00  0.00000000E+00  0.00000000E+00  0.00000000E+00
  0.00000000E+00  0.00000000E+00  0.00000000E+00  0.00000000E+00  0.00000000E+00
  0.00000000E+00  0.00000000E+00  0.00000000E+00  0.00000000E+00  0.00000000E+00
  0.00000000E+00  0.00000000E+00  0.00000000E+00  0.00000000E+00  0.00000000E+00
  0.00000000E+00  0.00000000E+00  0.00000000E+00  0.00000000E+00  0.00000000E+00
  0.00000000E+00  0.00000000E+00  0.00000000E+00  0.00000000E+00  0.00000000E+00
  0.00000000E+00  0.00000000E+00  0.00000000E+00  0.00000000E+00  0.00000000E+00
  0.00000000E+00  0.00000000E+00  0.00000000E+00  0.00000000E+00  0.00000000E+00
  0.00000000E+00  0.00000000E+00  0.00000000E+00  0.00000000E+00  0.00000000E+00
  0.00000000E+00  0.00000000E+00  0.00000000E+00  0.00000000E+00  0.00000000E+00
  0.00000000E+00  0.00000000E+00  0.00000000E+00  0.00000000E+00  0.00000000E+00
  0.00000000E+00  0.00000000E+00  0.00000000E+00  0.00000000E+00  0.00000000E+00
  0.00000000E+00  0.00000000E+00  0.00000000E+00  0.00000000E+00  0.00000000E+00
  0.00000000E+00  0.00000000E+00  0.00000000E+00  0.00000000E+00  0.00000000E+00
  0.00000000E+00  0.00000000E+00  0.00000000E+00  0.00000000E+00  0.00000000E+00
  0.00000000E+00  0.00000000E+00  0.00000000E+00  0.00000000E+00  0.00000000E+00
  0.00000000E+00  0.00000000E+00
MO    3                     OCC NO =   1.00000000 ORB. ENERGY = -86.72009462
  2.49918566E+01  2.56109397E+01  2.28124698E+01  1.94559862E+01  1.68318964E+01
  1.52688276E+01  1.38163421E+01  1.33856528E+01  1.27837730E+01  1.13074305E+01
  1.05344062E+01  7.09271173E+00  1.06113791E+00  2.53676373E+00  5.38725633E+00
  8.41720486E+00  9.96575101E+00 -3.90881486E+00 -1.36955875E+01 -1.08611504E+01
  1.75229737E+00  6.19001302E+00  1.59749369E+00  2.56129824E-02  5.51302997E-03
 -1.36925947E-03  3.55103159E-04 -7.48982792E-05  1.13197477E-05 -1.54569752E-06
  0.00000000E+00  0.00000000E+00  0.00000000E+00  0.00000000E+00  0.00000000E+00
  0.00000000E+00  0.00000000E+00  0.00000000E+00  0.00000000E+00  0.00000000E+00
  0.00000000E+00  0.00000000E+00  0.00000000E+00  0.00000000E+00  0.00000000E+00
  0.00000000E+00  0.00000000E+00  0.00000000E+00  0.00000000E+00  0.00000000E+00
  0.00000000E+00  0.00000000E+00  0.00000000E+00  0.00000000E+00  0.00000000E+00
  0.00000000E+00  0.00000000E+00  0.00000000E+00  0.00000000E+00  0.00000000E+00
  0.00000000E+00  0.00000000E+00  0.00000000E+00  0.00000000E+00  0.00000000E+00
  0.00000000E+00  0.00000000E+00  0.00000000E+00  0.00000000E+00  0.00000000E+00
  0.00000000E+00  0.00000000E+00  0.00000000E+00  0.00000000E+00  0.00000000E+00
  0.00000000E+00  0.00000000E+00  0.00000000E+00  0.00000000E+00  0.00000000E+00
  0.00000000E+00  0.00000000E+00  0.00000000E+00  0.00000000E+00  0.00000000E+00
  0.00000000E+00  0.00000000E+00  0.00000000E+00  0.00000000E+00  0.00000000E+00
  0.00000000E+00  0.00000000E+00  0.00000000E+00  0.00000000E+00  0.00000000E+00
  0.00000000E+00  0.00000000E+00  0.00000000E+00  0.00000000E+00  0.00000000E+00
  0.00000000E+00  0.00000000E+00  0.00000000E+00  0.00000000E+00  0.00000000E+00
  0.00000000E+00  0.00000000E+00  0.00000000E+00  0.00000000E+00  0.00000000E+00
  0.00000000E+00  0.00000000E+00  0.00000000E+00  0.00000000E+00  0.00000000E+00
  0.00000000E+00  0.00000000E+00  0.00000000E+00  0.00000000E+00  0.00000000E+00
  0.00000000E+00  0.00000000E+00  0.00000000E+00  0.00000000E+00  0.00000000E+00
  0.00000000E+00  0.00000000E+00  0.00000000E+00  0.00000000E+00  0.00000000E+00
  0.00000000E+00  0.00000000E+00  0.00000000E+00  0.00000000E+00  0.00000000E+00
  0.00000000E+00  0.00000000E+00  0.00000000E+00  0.00000000E+00  0.00000000E+00
  0.00000000E+00  0.00000000E+00  0.00000000E+00  0.00000000E+00  0.00000000E+00
  0.00000000E+00  0.00000000E+00  0.00000000E+00  0.00000000E+00  0.00000000E+00
  0.00000000E+00  0.00000000E+00  0.00000000E+00  0.00000000E+00  0.00000000E+00
  0.00000000E+00  0.00000000E+00  0.00000000E+00  0.00000000E+00  0.00000000E+00
  0.00000000E+00  0.00000000E+00  0.00000000E+00  0.00000000E+00  0.00000000E+00
  0.00000000E+00  0.00000000E+00  0.00000000E+00  0.00000000E+00  0.00000000E+00
  0.00000000E+00  0.00000000E+00  0.00000000E+00  0.00000000E+00  0.00000000E+00
  0.00000000E+00  0.00000000E+00  0.00000000E+00  0.00000000E+00  0.00000000E+00
  0.00000000E+00  0.00000000E+00  0.00000000E+00  0.00000000E+00  0.00000000E+00
  0.00000000E+00  0.00000000E+00  0.00000000E+00  0.00000000E+00  0.00000000E+00
  0.00000000E+00  0.00000000E+00  0.00000000E+00  0.00000000E+00  0.00000000E+00
  0.00000000E+00  0.00000000E+00  0.00000000E+00  0.00000000E+00  0.00000000E+00
  0.00000000E+00  0.00000000E+00  0.00000000E+00  0.00000000E+00  0.00000000E+00
  0.00000000E+00  0.00000000E+00  0.00000000E+00  0.00000000E+00  0.00000000E+00
  0.00000000E+00  0.00000000E+00  0.00000000E+00  0.00000000E+00  0.00000000E+00
  0.00000000E+00  0.00000000E+00  0.00000000E+00  0.00000000E+00  0.00000000E+00
  0.00000000E+00  0.00000000E+00  0.00000000E+00  0.00000000E+00  0.00000000E+00
  0.00000000E+00  0.00000000E+00  0.00000000E+00  0.00000000E+00  0.00000000E+00
  0.00000000E+00  0.00000000E+00  0.00000000E+00  0.00000000E+00  0.00000000E+00
  0.00000000E+00  0.00000000E+00  0.00000000E+00  0.00000000E+00  0.00000000E+00
  0.00000000E+00  0.00000000E+00  0.00000000E+00  0.00000000E+00  0.00000000E+00
  0.00000000E+00  0.00000000E+00  0.00000000E+00  0.00000000E+00  0.00000000E+00
  0.00000000E+00  0.00000000E+00  0.00000000E+00  0.00000000E+00  0.00000000E+00
  0.00000000E+00  0.00000000E+00  0.00000000E+00  0.00000000E+00  0.00000000E+00
  0.00000000E+00  0.00000000E+00  0.00000000E+00  0.00000000E+00  0.00000000E+00
  0.00000000E+00  0.00000000E+00  0.00000000E+00  0.00000000E+00  0.00000000E+00
  0.00000000E+00  0.00000000E+00  0.00000000E+00  0.00000000E+00  0.00000000E+00
  0.00000000E+00  0.00000000E+00  0.00000000E+00  0.00000000E+00  0.00000000E+00
  0.00000000E+00  0.00000000E+00  0.00000000E+00  0.00000000E+00  0.00000000E+00
  0.00000000E+00  0.00000000E+00  0.00000000E+00  0.00000000E+00  0.00000000E+00
  0.00000000E+00  0.00000000E+00  0.00000000E+00  0.00000000E+00  0.00000000E+00