atomref-proatoms Zn_q0_mult1_nist x2c-QZVPall
GAUSSIAN             30 MOL ORBITALS    199 PRIMITIVES        1 NUCLEI
  Zn   1    (CENTRE  1)   0.00000000  0.00000000  0.00000000  CHARGE = 30.0
CENTRE ASSIGNMENTS    1  1  1  1  1  1  1  1  1  1  1  1  1  1  1  1  1  1  1  1
CENTRE ASSIGNMENTS    1  1  1  1  1  1  1  1  1  1  1  1  1  1  1  1  1  1  1  1
CENTRE ASSIGNMENTS    1  1  1  1  1  1  1  1  1  1  1  1  1  1  1  1  1  1  1  1
CENTRE ASSIGNMENTS    1  1  1  1  1  1  1  1  1  1  1  1  1  1  1  1  1  1  1  1
CENTRE ASSIGNMENTS    1  1  1  1  1  1  1  1  1  1  1  1  1  1  1  1  1  1  1  1
CENTRE ASSIGNMENTS    1  1  1  1  1  1  1  1  1  1  1  1  1  1  1  1  1  1  1  1
CENTRE ASSIGNMENTS    1  1  1  1  1  1  1  1  1  1  1  1  1  1  1  1  1  1  1  1
CENTRE ASSIGNMENTS    1  1  1  1  1  1  1  1  1  1  1  1  1  1  1  1  1  1  1  1
CENTRE ASSIGNMENTS    1  1  1  1  1  1  1  1  1  1  1  1  1  1  1  1  1  1  1  1
CENTRE ASSIGNMENTS    1  1  1  1  1  1  1  1  1  1  1  1  1  1  1  1  1  1  1
TYPE ASSIGNMENTS      1  1  1  1  1  1  1  1  1  1  1  1  1  1  1  1  1  1  1  1
TYPE ASSIGNMENTS      1  1  1  1  2  3  4  2  3  4  2  3  4  2  3  4  2  3  4  2
TYPE ASSIGNMENTS      3  4  2  3  4  2  3  4  2  3  4  2  3  4  2  3  4  2  3  4
TYPE ASSIGNMENTS      2  3  4  2  3  4  2  3  4  2  3  4  2  3  4  2  3  4  2  3
TYPE ASSIGNMENTS      4  2  3  4  5  8  9  6 10  7  5  8  9  6 10  7  5  8  9  6
TYPE ASSIGNMENTS     10  7  5  8  9  6 10  7  5  8  9  6 10  7  5  8  9  6 10  7
TYPE ASSIGNMENTS      5  8  9  6 10  7  5  8  9  6 10  7  5  8  9  6 10  7  5  8
TYPE ASSIGNMENTS      9  6 10  7 11 14 15 17 20 18 12 16 19 13 11 14 15 17 20 18
TYPE ASSIGNMENTS     12 16 19 13 11 14 15 17 20 18 12 16 19 13 11 14 15 17 20 18
TYPE ASSIGNMENTS     12 16 19 13 21 24 25 30 33 31 26 34 35 28 22 27 32 29 23
EXPONENTS  1.4173562E+07 1.8296213E+06 3.7091519E+05 9.6941803E+04 3.0122957E+04
EXPONENTS  1.0602491E+04 4.0683628E+03 1.5952644E+03 6.9238963E+02 3.5973662E+02
EXPONENTS  1.9777570E+02 2.0592245E+03 6.1512801E+02 2.3810205E+02 1.0487114E+02
EXPONENTS  4.8204760E+01 2.2838695E+01 1.0848275E+01 4.6547269E+00 2.2168781E+00
EXPONENTS  9.6426443E-01 2.0079631E-01 9.0193702E-02 3.8408025E-02 4.9359706E+04
EXPONENTS  4.9359706E+04 4.9359706E+04 1.1661807E+04 1.1661807E+04 1.1661807E+04
EXPONENTS  3.1685237E+03 3.1685237E+03 3.1685237E+03 9.9002442E+02 9.9002442E+02
EXPONENTS  9.9002442E+02 3.5574000E+02 3.5574000E+02 3.5574000E+02 1.4668826E+02
EXPONENTS  1.4668826E+02 1.4668826E+02 6.5247006E+01 6.5247006E+01 6.5247006E+01
EXPONENTS  3.0220144E+01 3.0220144E+01 3.0220144E+01 1.4352314E+01 1.4352314E+01
EXPONENTS  1.4352314E+01 6.6506033E+00 6.6506033E+00 6.6506033E+00 2.0600000E+01
EXPONENTS  2.0600000E+01 2.0600000E+01 8.9050454E+01 8.9050454E+01 8.9050454E+01
EXPONENTS  3.2428524E+01 3.2428524E+01 3.2428524E+01 6.5061141E+00 6.5061141E+00
EXPONENTS  6.5061141E+00 3.0021126E+00 3.0021126E+00 3.0021126E+00 1.3504709E+00
EXPONENTS  1.3504709E+00 1.3504709E+00 5.5926317E-01 5.5926317E-01 5.5926317E-01
EXPONENTS  2.5799972E-01 2.5799972E-01 2.5799972E-01 9.2863192E-02 9.2863192E-02
EXPONENTS  9.2863192E-02 3.4059341E-02 3.4059341E-02 3.4059341E-02 3.1424400E+02
EXPONENTS  3.1424400E+02 3.1424400E+02 3.1424400E+02 3.1424400E+02 3.1424400E+02
EXPONENTS  9.3392437E+01 9.3392437E+01 9.3392437E+01 9.3392437E+01 9.3392437E+01
EXPONENTS  9.3392437E+01 3.5703616E+01 3.5703616E+01 3.5703616E+01 3.5703616E+01
EXPONENTS  3.5703616E+01 3.5703616E+01 1.5160653E+01 1.5160653E+01 1.5160653E+01
EXPONENTS  1.5160653E+01 1.5160653E+01 1.5160653E+01 6.8494356E+00 6.8494356E+00
EXPONENTS  6.8494356E+00 6.8494356E+00 6.8494356E+00 6.8494356E+00 3.1296890E+00
EXPONENTS  3.1296890E+00 3.1296890E+00 3.1296890E+00 3.1296890E+00 3.1296890E+00
EXPONENTS  1.3874565E+00 1.3874565E+00 1.3874565E+00 1.3874565E+00 1.3874565E+00
EXPONENTS  1.3874565E+00 5.7937955E-01 5.7937955E-01 5.7937955E-01 5.7937955E-01
EXPONENTS  5.7937955E-01 5.7937955E-01 2.1718976E-01 2.1718976E-01 2.1718976E-01
EXPONENTS  2.1718976E-01 2.1718976E-01 2.1718976E-01 8.3000000E-02 8.3000000E-02
EXPONENTS  8.3000000E-02 8.3000000E-02 8.3000000E-02 8.3000000E-02 8.0200000E+00
EXPONENTS  8.0200000E+00 8.0200000E+00 8.0200000E+00 8.0200000E+00 8.0200000E+00
EXPONENTS  8.0200000E+00 8.0200000E+00 8.0200000E+00 8.0200000E+00 2.6140000E+00
EXPONENTS  2.6140000E+00 2.6140000E+00 2.6140000E+00 2.6140000E+00 2.6140000E+00
EXPONENTS  2.6140000E+00 2.6140000E+00 2.6140000E+00 2.6140000E+00 8.3600000E-01
EXPONENTS  8.3600000E-01 8.3600000E-01 8.3600000E-01 8.3600000E-01 8.3600000E-01
EXPONENTS  8.3600000E-01 8.3600000E-01 8.3600000E-01 8.3600000E-01 2.6730000E-01
EXPONENTS  2.6730000E-01 2.6730000E-01 2.6730000E-01 2.6730000E-01 2.6730000E-01
EXPONENTS  2.6730000E-01 2.6730000E-01 2.6730000E-01 2.6730000E-01 1.9780000E+00
EXPONENTS  1.9780000E+00 1.9780000E+00 1.9780000E+00 1.9780000E+00 1.9780000E+00
EXPONENTS  1.9780000E+00 1.9780000E+00 1.9780000E+00 1.9780000E+00 1.9780000E+00
EXPONENTS  1.9780000E+00 1.9780000E+00 1.9780000E+00 1.9780000E+00
MO    1                     OCC NO =   1.00000000 ORB. ENERGY = -351.67933940
  1.28019869E+01  9.38465647E+00  8.14547629E+00  8.04161531E+00  8.77487391E+00
  1.03275256E+01  1.28301034E+01  1.56554011E+01  1.43348163E+01  9.38652258E+00
  5.67013363E+00  9.41338091E-01  3.18147528E+00  6.60571087E+00  6.53695606E+00
  1.11985247E+00 -3.86129630E-02  2.02813671E-02 -6.24544292E-03  1.98096366E-03
 -3.70911340E-04  4.06220371E-05 -1.68317711E-05  2.81751902E-06  0.00000000E+00
  0.00000000E+00  0.00000000E+00  0.00000000E+00  0.00000000E+00  0.00000000E+00
  0.00000000E+00  0.00000000E+00  0.00000000E+00  0.00000000E+00  0.00000000E+00
  0.00000000E+00  0.00000000E+00  0.00000000E+00  0.00000000E+00  0.00000000E+00
  0.00000000E+00  0.00000000E+00  0.00000000E+00  0.00000000E+00  0.00000000E+00
  0.00000000E+00  0.00000000E+00  0.00000000E+00  0.00000000E+00  0.00000000E+00
  0.00000000E+00  0.00000000E+00  0.00000000E+00  0.00000000E+00  0.00000000E+00
  0.00000000E+00  0.00000000E+00  0.00000000E+00  0.00000000E+00  0.00000000E+00
  0.00000000E+00  0.00000000E+00  0.00000000E+00  0.00000000E+00  0.00000000E+00
  0.00000000E+00  0.00000000E+00  0.00000000E+00  0.00000000E+00  0.00000000E+00
  0.00000000E+00  0.00000000E+00  0.00000000E+00  0.00000000E+00  0.00000000E+00
  0.00000000E+00  0.00000000E+00  0.00000000E+00  0.00000000E+00  0.00000000E+00
  0.00000000E+00  0.00000000E+00  0.00000000E+00  0.00000000E+00  0.00000000E+00
  0.00000000E+00  0.00000000E+00  0.00000000E+00  0.00000000E+00  0.00000000E+00
  0.00000000E+00  0.00000000E+00  0.00000000E+00  0.00000000E+00  0.00000000E+00
  0.00000000E+00  0.00000000E+00  0.00000000E+00  0.00000000E+00  0.00000000E+00
  0.00000000E+00  0.00000000E+00  0.00000000E+00  0.00000000E+00  0.00000000E+00
  0.00000000E+00  0.00000000E+00  0.00000000E+00  0.00000000E+00  0.00000000E+00
  0.00000000E+00  0.00000000E+00  0.00000000E+00  0.00000000E+00  0.00000000E+00
  0.00000000E+00  0.00000000E+00  0.00000000E+00  0.00000000E+00  0.00000000E+00
  0.00000000E+00  0.00000000E+00  0.00000000E+00  0.00000000E+00  0.00000000E+00
  0.00000000E+00  0.00000000E+00  0.00000000E+00  0.00000000E+00  0.00000000E+00
  0.00000000E+00  0.00000000E+00  0.00000000E+00  0.00000000E+00  0.00000000E+00
  0.00000000E+00  0.00000000E+00  0.00000000E+00  0.00000000E+00  0.00000000E+00
  0.00000000E+00  0.00000000E+00  0.00000000E+00  0.00000000E+00  0.00000000E+00
  0.00000000E+00  0.00000000E+00  0.00000000E+00  0.00000000E+00  0.00000000E+00
  0.00000000E+00  0.00000000E+00  0.00000000E+00  0.00000000E+00  0.00000000E+00
  0.00000000E+00  0.00000000E+00  0.00000000E+00  0.00000000E+00  0.00000000E+00
  0.00000000E+00  0.00000000E+00  0.00000000E+00  0.00000000E+00  0.00000000E+00
  0.00000000E+00  0.00000000E+00  0.00000000E+00  0.00000000E+00  0.00000000E+00
  0.00000000E+00  0.00000000E+00  0.00000000E+00  0.00000000E+00  0.00000000E+00
  0.00000000E+00  0.00000000E+00  0.00000000E+00  0.00000000E+00  0.00000000E+00
  0.00000000E+00  0.00000000E+00  0.00000000E+00  0.00000000E+00  0.00000000E+00
  0.00000000E+00  0.00000000E+00  0.00000000E+00  0.00000000E+00  0.00000000E+00
  0.00000000E+00  0.00000000E+00  0.00000000E+00  0.00000000E+00  0.00000000E+00
  0.00000000E+00  0.00000000E+00  0.00000000E+00  0.00000000E+00
MO    2                     OCC NO =   1.00000000 ORB. ENERGY = -43.23813842
 -4.10196652E+00 -3.00699781E+00 -2.60994416E+00 -2.57666540E+00 -2.81161348E+00
 -3.30910853E+00 -4.11097550E+00 -5.01624722E+00 -4.59311020E+00 -3.00759574E+00
 -1.81680379E+00 -6.48002063E-01 -2.19007662E+00 -4.54726555E+00 -4.49993584E+00
  3.25280251E-01  3.73253520E+00  2.23068421E+00  2.40883549E-01 -1.39840836E-02
  2.50372531E-03 -2.37052797E-04  9.79034461E-05 -1.63708562E-05  0.00000000E+00
  0.00000000E+00  0.00000000E+00  0.00000000E+00  0.00000000E+00  0.00000000E+00
  0.00000000E+00  0.00000000E+00  0.00000000E+00  0.00000000E+00  0.00000000E+00
  0.00000000E+00  0.00000000E+00  0.00000000E+00  0.00000000E+00  0.00000000E+00
  0.00000000E+00  0.00000000E+00  0.00000000E+00  0.00000000E+00  0.00000000E+00
  0.00000000E+00  0.00000000E+00  0.00000000E+00  0.00000000E+00  0.00000000E+00
  0.00000000E+00  0.00000000E+00  0.00000000E+00  0.00000000E+00  0.00000000E+00
  0.00000000E+00  0.00000000E+00  0.00000000E+00  0.00000000E+00  0.00000000E+00
  0.00000000E+00  0.00000000E+00  0.00000000E+00  0.00000000E+00  0.00000000E+00
  0.00000000E+00  0.00000000E+00  0.00000000E+00  0.00000000E+00  0.00000000E+00
  0.00000000E+00  0.00000000E+00  0.00000000E+00  0.00000000E+00  0.00000000E+00
  0.00000000E+00  0.00000000E+00  0.00000000E+00  0.00000000E+00  0.00000000E+00
  0.00000000E+00  0.00000000E+00  0.00000000E+00  0.00000000E+00  0.00000000E+00
  0.00000000E+00  0.00000000E+00  0.00000000E+00  0.00000000E+00  0.00000000E+00
  0.00000000E+00  0.00000000E+00  0.00000000E+00  0.00000000E+00  0.00000000E+00
  0.00000000E+00  0.00000000E+00  0.00000000E+00  0.00000000E+00  0.00000000E+00
  0.00000000E+00  0.00000000E+00  0.00000000E+00  0.00000000E+00  0.00000000E+00
  0.00000000E+00  0.00000000E+00  0.00000000E+00  0.00000000E+00  0.00000000E+00
  0.00000000E+00  0.00000000E+00  0.00000000E+00  0.00000000E+00  0.00000000E+00
  0.00000000E+00  0.00000000E+00  0.00000000E+00  0.00000000E+00  0.00000000E+00
  0.00000000E+00  0.00000000E+00  0.00000000E+00  0.00000000E+00  0.00000000E+00
  0.00000000E+00  0.00000000E+00  0.00000000E+00  0.00000000E+00  0.00000000E+00
  0.00000000E+00  0.00000000E+00  0.00000000E+00  0.00000000E+00  0.00000000E+00
  0.00000000E+00  0.00000000E+00  0.00000000E+00  0.00000000E+00  0.00000000E+00
  0.00000000E+00  0.00000000E+00  0.00000000E+00  0.00000000E+00  0.00000000E+00
  0.00000000E+00  0.00000000E+00  0.00000000E+00  0.00000000E+00  0.00000000E+00
  0.00000000E+00  0.00000000E+00  0.00000000E+00  0.00000000E+00  0.00000000E+00
  0.00000000E+00  0.00000000E+00  0.00000000E+00  0.00000000E+00  0.00000000E+00
  0.00000000E+00  0.00000000E+00  0.00000000E+00  0.00000000E+00  0.00000000E+00
  0.00000000E+00  0.00000000E+00  0.00000000E+00  0.00000000E+00  0.00000000E+00
  0.00000000E+00  0.00000000E+00  0.00000000E+00  0.00000000E+00  0.00000000E+00
  0.00000000E+00  0.00000000E+00  0.00000000E+00  0.00000000E+00  0.00000000E+00
  0.00000000E+00  0.00000000E+00  0.00000000E+00  0.00000000E+00  0.00000000E+00
  0.00000000E+00  0.00000000E+00  0.00000000E+00  0.00000000E+00  0.00000000E+00
  0.00000000E+00  0.00000000E+00  0.00000000E+00  0.00000000E+00  0.00000000E+00
  0.00000000E+00  0.00000000E+00  0.00000000E+00  0.00000000E+00
MO    3                     OCC NO =   1.00000000 ORB. ENERGY =  -5.01566356
  1.57008874E+00  1.15097317E+00  9.98994976E-01  9.86257035E-01  1.07618691E+00
  1.26661054E+00  1.57353706E+00  1.92004329E+00  1.75808129E+00  1.15120204E+00
  6.95408691E-01  2.73554022E-01  9.24540682E-01  1.91962781E+00  1.89964758E+00
 -1.54029108E-01 -2.33445090E+00 -2.00318144E+00  3.42879806E-01  9.35069278E-01
  2.68046378E-01  3.87287597E-03 -1.05361374E-03  1.53525587E-04  0.00000000E+00
  0.00000000E+00  0.00000000E+00  0.00000000E+00  0.00000000E+00  0.00000000E+00
  0.00000000E+00  0.00000000E+00  0.00000000E+00  0.00000000E+00  0.00000000E+00
  0.00000000E+00  0.00000000E+00  0.00000000E+00  0.00000000E+00  0.00000000E+00
  0.00000000E+00  0.00000000E+00  0.00000000E+00  0.00000000E+00  0.00000000E+00
  0.00000000E+00  0.00000000E+00  0.00000000E+00  0.00000000E+00  0.00000000E+00
  0.00000000E+00  0.00000000E+00  0.00000000E+00  0.00000000E+00  0.00000000E+00
  0.00000000E+00  0.00000000E+00  0.00000000E+00  0.00000000E+00  0.00000000E+00
  0.00000000E+00  0.00000000E+00  0.00000000E+00  0.00000000E+00  0.00000000E+00
  0.00000000E+00  0.00000000E+00  0.00000000E+00  0.00000000E+00  0.00000000E+00
  0.00000000E+00  0.00000000E+00  0.00000000E+00  0.00000000E+00  0.00000000E+00
  0.00000000E+00  0.00000000E+00  0.00000000E+00  0.00000000E+00  0.00000000E+00
  0.00000000E+00  0.00000000E+00  0.00000000E+00  0.00000000E+00  0.00000000E+00
  0.00000000E+00  0.00000000E+00  0.00000000E+00  0.00000000E+00  0.00000000E+00
  0.00000000E+00  0.00000000E+00  0.00000000E+00  0.00000000E+00  0.00000000E+00
  0.00000000E+00  0.00000000E+00  0.00000000E+00  0.00000000E+00  0.00000000E+00
  0.00000000E+00  0.00000000E+00  0.00000000E+00  0.00000000E+00  0.00000000E+00
  0.00000000E+00  0.00000000E+00  0.00000000E+00  0.00000000E+00  0.00000000E+00
  0.00000000E+00  0.00000000E+00  0.00000000E+00  0.00000000E+00  0.00000000E+00
  0.00000000E+00  0.00000000E+00  0.00000000E+00  0.00000000E+00  0.00000000E+00
  0.00000000E+00  0.00000000E+00  0.00000000E+00  0.00000000E+00  0.00000000E+00
  0.00000000E+00  0.00000000E+00  0.00000000E+00  0.00000000E+00  0.00000000E+00
  0.00000000E+00  0.00000000E+00  0.00000000E+00  0.00000000E+00  0.00000000E+00
  0.00000000E+00  0.00000000E+00  0.00000000E+00  0.00000000E+00  0.00000000E+00
  0.00000000E+00  0.00000000E+00  0.00000000E+00  0.00000000E+00  0.00000000E+00
  0.00000000E+00  0.00000000E+00  0.00000000E+00  0.00000000E+00  0.00000000E+00
  0.00000000E+00  0.00000000E+00  0.00000000E+00  0.00000000E+00  0.00000000E+00
  0.00000000E+00  0.00000000E+00  0.00000000E+00  0.00000000E+00  0.00000000E+00
  0.00000000E+00  0.00000000E+00  0.00000000E+00  0.00000000E+00  0.00000000E+00
  0.00000000E+00  0.00000000E+00  0.00000000E+00  0.00000000E+00  0.00000000E+00
  0.00000000E+00  0.00000000E+00  0.00000000E+00  0.00000000E+00  0.00000000E+00
  0.00000000E+00  0.00000000E+00  0.00000000E+00  0.00000000E+00  0.00000000E+00
  0.00000000E+00  0.00000000E+00  0.00000000E+00  0.00000000E+00  0.00000000E+00
  0.00000000E+00  0.00000000E+00  0.00000000E+00  0.00000000E+00  0.00000000E+00
  0.00000000E+00  0.00000000E+00  0.00000000E+00  0.00000000E+00  0.00000000E+00
  0.00000000E+00  0.00000000E+00  0.00000000E+00  0.00000000E+00
MO    4                     OCC NO =   1.00000000 ORB. ENERGY =  -0.24615998
 -3.57108394E-01 -2.61782770E-01 -2.27216132E-01 -2.24318955E-01 -2.44773030E-01
 -2.88083880E-01 -3.57892695E-01 -4.36703707E-01 -3.99866307E-01 -2.61834824E-01
 -1.58167035E-01 -6.28421465E-02 -2.12389935E-01 -4.40986139E-01 -4.36396183E-01
  3.17165788E-02  5.72350055E-01  4.99750124E-01 -9.06396295E-02 -3.46340185E-01
 -1.51393597E-01  8.99759656E-02  6.31163845E-02  1.24914043E-02  0.00000000E+00
  0.00000000E+00  0.00000000E+00  0.00000000E+00  0.00000000E+00  0.00000000E+00
  0.00000000E+00  0.00000000E+00  0.00000000E+00  0.00000000E+00  0.00000000E+00
  0.00000000E+00  0.00000000E+00  0.00000000E+00  0.00000000E+00  0.00000000E+00
  0.00000000E+00  0.00000000E+00  0.00000000E+00  0.00000000E+00  0.00000000E+00
  0.00000000E+00  0.00000000E+00  0.00000000E+00  0.00000000E+00  0.00000000E+00
  0.00000000E+00  0.00000000E+00  0.00000000E+00  0.00000000E+00  0.00000000E+00
  0.00000000E+00  0.00000000E+00  0.00000000E+00  0.00000000E+00  0.00000000E+00
  0.00000000E+00  0.00000000E+00  0.00000000E+00  0.00000000E+00  0.00000000E+00
  0.00000000E+00  0.00000000E+00  0.00000000E+00  0.00000000E+00  0.00000000E+00
  0.00000000E+00  0.00000000E+00  0.00000000E+00  0.00000000E+00  0.00000000E+00
  0.00000000E+00  0.00000000E+00  0.00000000E+00  0.00000000E+00  0.00000000E+00
  0.00000000E+00  0.00000000E+00  0.00000000E+00  0.00000000E+00  0.00000000E+00
  0.00000000E+00  0.00000000E+00  0.00000000E+00  0.00000000E+00  0.00000000E+00
  0.00000000E+00  0.00000000E+00  0.00000000E+00  0.00000000E+00  0.00000000E+00
  0.00000000E+00  0.00000000E+00  0.00000000E+00  0.00000000E+00  0.00000000E+00
  0.00000000E+00  0.00000000E+00  0.00000000E+00  0.00000000E+00  0.00000000E+00
  0.00000000E+00  0.00000000E+00  0.00000000E+00  0.00000000E+00  0.00000000E+00
  0.00000000E+00  0.00000000E+00  0.00000000E+00  0.00000000E+00  0.00000000E+00
  0.00000000E+00  0.00000000E+00  0.00000000E+00  0.00000000E+00  0.00000000E+00
  0.00000000E+00  0.00000000E+00  0.00000000E+00  0.00000000E+00  0.00000000E+00
  0.00000000E+00  0.00000000E+00  0.00000000E+00  0.00000000E+00  0.00000000E+00
  0.00000000E+00  0.00000000E+00  0.00000000E+00  0.00000000E+00  0.00000000E+00
  0.00000000E+00  0.00000000E+00  0.00000000E+00  0.00000000E+00  0.00000000E+00
  0.00000000E+00  0.00000000E+00  0.00000000E+00  0.00000000E+00  0.00000000E+00
  0.00000000E+00  0.00000000E+00  0.00000000E+00  0.00000000E+00  0.00000000E+00
  0.00000000E+00  0.00000000E+00  0.00000000E+00  0.00000000E+00  0.00000000E+00
  0.00000000E+00  0.00000000E+00  0.00000000E+00  0.00000000E+00  0.00000000E+00
  0.00000000E+00  0.00000000E+00  0.00000000E+00  0.00000000E+00  0.00000000E+00
  0.00000000E+00  0.00000000E+00  0.00000000E+00  0.00000000E+00  0.00000000E+00
  0.00000000E+00  0.00000000E+00  0.00000000E+00  0.00000000E+00  0.00000000E+00
  0.00000000E+00  0.00000000E+00  0.00000000E+00  0.00000000E+00  0.00000000E+00
  0.00000000E+00  0.00000000E+00  0.00000000E+00  0.00000000E+00  0.00000000E+00
  0.00000000E+00  0.00000000E+00  0.00000000E+00  0.00000000E+00  0.00000000E+00
  0.00000000E+00  0.00000000E+00  0.00000000E+00  0.00000000E+00  0.00000000E+00
  0.00000000E+00  0.00000000E+00  0.00000000E+00  0.00000000E+00
MO    5                     OCC NO =   1.00000000 ORB. ENERGY = -37.44017392
  0.00000000E+00  0.00000000E+00  0.00000000E+00  0.00000000E+00  0.00000000E+00
  0.00000000E+00  0.00000000E+00  0.00000000E+00  0.00000000E+00  0.00000000E+00
  0.00000000E+00  0.00000000E+00  0.00000000E+00  0.00000000E+00  0.00000000E+00
  0.00000000E+00  0.00000000E+00  0.00000000E+00  0.00000000E+00  0.00000000E+00
  0.00000000E+00  0.00000000E+00  0.00000000E+00  0.00000000E+00  6.10806574E+01
  0.00000000E+00  0.00000000E+00  4.37282569E+01  0.00000000E+00  0.00000000E+00
  4.99033950E+01  0.00000000E+00  0.00000000E+00  6.14423501E+01  0.00000000E+00
  0.00000000E+00  7.11914693E+01  0.00000000E+00  0.00000000E+00  7.33490019E+01
  0.00000000E+00  0.00000000E+00  6.32588056E+01  0.00000000E+00  0.00000000E+00
  3.85974312E+01  0.00000000E+00  0.00000000E+00  1.30684343E+01  0.00000000E+00
  0.00000000E+00  1.47076700E+00  0.00000000E+00  0.00000000E+00 -1.05451408E-01
  0.00000000E+00  0.00000000E+00 -1.57563192E-02  0.00000000E+00  0.00000000E+00
 -1.93567241E-02  0.00000000E+00  0.00000000E+00  2.63146741E-02  0.00000000E+00
  0.00000000E+00  2.07287050E-02  0.00000000E+00  0.00000000E+00  6.17717467E-03
  0.00000000E+00  0.00000000E+00 -2.50319077E-03  0.00000000E+00  0.00000000E+00
  6.75365253E-04  0.00000000E+00  0.00000000E+00 -7.78154339E-05  0.00000000E+00
  0.00000000E+00  7.16461292E-06  0.00000000E+00  0.00000000E+00  0.00000000E+00
  0.00000000E+00  0.00000000E+00  0.00000000E+00  0.00000000E+00  0.00000000E+00
  0.00000000E+00  0.00000000E+00  0.00000000E+00  0.00000000E+00  0.00000000E+00
  0.00000000E+00  0.00000000E+00  0.00000000E+00  0.00000000E+00  0.00000000E+00
  0.00000000E+00  0.00000000E+00  0.00000000E+00  0.00000000E+00  0.00000000E+00
  0.00000000E+00  0.00000000E+00  0.00000000E+00  0.00000000E+00  0.00000000E+00
  0.00000000E+00  0.00000000E+00  0.00000000E+00  0.00000000E+00  0.00000000E+00
  0.00000000E+00  0.00000000E+00  0.00000000E+00  0.00000000E+00  0.00000000E+00
  0.00000000E+00  0.00000000E+00  0.00000000E+00  0.00000000E+00  0.00000000E+00
  0.00000000E+00  0.00000000E+00  0.00000000E+00  0.00000000E+00  0.00000000E+00
  0.00000000E+00  0.00000000E+00  0.00000000E+00  0.00000000E+00  0.00000000E+00
  0.00000000E+00  0.00000000E+00  0.00000000E+00  0.00000000E+00  0.00000000E+00
  0.00000000E+00  0.00000000E+00  0.00000000E+00  0.00000000E+00  0.00000000E+00
  0.00000000E+00  0.00000000E+00  0.00000000E+00  0.00000000E+00  0.00000000E+00
  0.00000000E+00  0.00000000E+00  0.00000000E+00  0.00000000E+00  0.00000000E+00
  0.00000000E+00  0.00000000E+00  0.00000000E+00  0.00000000E+00  0.00000000E+00
  0.00000000E+00  0.00000000E+00  0.00000000E+00  0.00000000E+00  0.00000000E+00
  0.00000000E+00  0.00000000E+00  0.00000000E+00  0.00000000E+00  0.00000000E+00
  0.00000000E+00  0.00000000E+00  0.00000000E+00  0.00000000E+00  0.00000000E+00
  0.00000000E+00  0.00000000E+00  0.00000000E+00  0.00000000E+00  0.00000000E+00
  0.00000000E+00  0.00000000E+00  0.00000000E+00  0.00000000E+00  0.00000000E+00
  0.00000000E+00  0.00000000E+00  0.00000000E+00  0.00000000E+00  0.00000000E+00
  0.00000000E+00  0.00000000E+00  0.00000000E+00  0.00000000E+00  0.00000000E+00
  0.00000000E+00  0.00000000E+00  0.00000000E+00  0.00000000E+00
MO    6                     OCC NO =   1.00000000 ORB. ENERGY = -37.44017392
  0.00000000E+00  0.00000000E+00  0.00000000E+00  0.00000000E+00  0.00000000E+00
  0.00000000E+00  0.00000000E+00  0.00000000E+00  0.00000000E+00  0.00000000E+00
  0.00000000E+00  0.00000000E+00  0.00000000E+00  0.00000000E+00  0.00000000E+00
  0.00000000E+00  0.00000000E+00  0.00000000E+00  0.00000000E+00  0.00000000E+00
  0.00000000E+00  0.00000000E+00  0.00000000E+00  0.00000000E+00  0.00000000E+00
  6.10806574E+01  0.00000000E+00  0.00000000E+00  4.37282569E+01  0.00000000E+00
  0.00000000E+00  4.99033950E+01  0.00000000E+00  0.00000000E+00  6.14423501E+01
  0.00000000E+00  0.00000000E+00  7.11914693E+01  0.00000000E+00  0.00000000E+00
  7.33490019E+01  0.00000000E+00  0.00000000E+00  6.32588056E+01  0.00000000E+00
  0.00000000E+00  3.85974312E+01  0.00000000E+00  0.00000000E+00  1.30684343E+01
  0.00000000E+00  0.00000000E+00  1.47076700E+00  0.00000000E+00  0.00000000E+00
 -1.05451408E-01  0.00000000E+00  0.00000000E+00 -1.57563192E-02  0.00000000E+00
  0.00000000E+00 -1.93567241E-02  0.00000000E+00  0.00000000E+00  2.63146741E-02
  0.00000000E+00  0.00000000E+00  2.07287050E-02  0.00000000E+00  0.00000000E+00
  6.17717467E-03  0.00000000E+00  0.00000000E+00 -2.50319077E-03  0.00000000E+00
  0.00000000E+00  6.75365253E-04  0.00000000E+00  0.00000000E+00 -7.78154339E-05
  0.00000000E+00  0.00000000E+00  7.16461292E-06  0.00000000E+00  0.00000000E+00
  0.00000000E+00  0.00000000E+00  0.00000000E+00  0.00000000E+00  0.00000000E+00
  0.00000000E+00  0.00000000E+00  0.00000000E+00  0.00000000E+00  0.00000000E+00
  0.00000000E+00  0.00000000E+00  0.00000000E+00  0.00000000E+00  0.00000000E+00
  0.00000000E+00  0.00000000E+00  0.00000000E+00  0.00000000E+00  0.00000000E+00
  0.00000000E+00  0.00000000E+00  0.00000000E+00  0.00000000E+00  0.00000000E+00
  0.00000000E+00  0.00000000E+00  0.00000000E+00  0.00000000E+00  0.00000000E+00
  0.00000000E+00  0.00000000E+00  0.00000000E+00  0.00000000E+00  0.00000000E+00
  0.00000000E+00  0.00000000E+00  0.00000000E+00  0.00000000E+00  0.00000000E+00
  0.00000000E+00  0.00000000E+00  0.00000000E+00  0.00000000E+00  0.00000000E+00
  0.00000000E+00  0.00000000E+00  0.00000000E+00  0.00000000E+00  0.00000000E+00
  0.00000000E+00  0.00000000E+00  0.00000000E+00  0.00000000E+00  0.00000000E+00
  0.00000000E+00  0.00000000E+00  0.00000000E+00  0.00000000E+00  0.00000000E+00
  0.00000000E+00  0.00000000E+00  0.00000000E+00  0.00000000E+00  0.00000000E+00
  0.00000000E+00  0.00000000E+00  0.00000000E+00  0.00000000E+00  0.00000000E+00
  0.00000000E+00  0.00000000E+00  0.00000000E+00  0.00000000E+00  0.00000000E+00
  0.00000000E+00  0.00000000E+00  0.00000000E+00  0.00000000E+00  0.00000000E+00
  0.00000000E+00  0.00000000E+00  0.00000000E+00  0.00000000E+00  0.00000000E+00
  0.00000000E+00  0.00000000E+00  0.00000000E+00  0.00000000E+00  0.00000000E+00
  0.00000000E+00  0.00000000E+00  0.00000000E+00  0.00000000E+00  0.00000000E+00
  0.00000000E+00  0.00000000E+00  0.00000000E+00  0.00000000E+00  0.00000000E+00
  0.00000000E+00  0.00000000E+00  0.00000000E+00  0.00000000E+00  0.00000000E+00
  0.00000000E+00  0.00000000E+00  0.00000000E+00  0.00000000E+00  0.00000000E+00
  0.00000000E+00  0.00000000E+00  0.00000000E+00  0.00000000E+00
MO    7                     OCC NO =   1.00000000 ORB. ENERGY = -37.44017392
  0.00000000E+00  0.00000000E+00  0.00000000E+00  0.00000000E+00  0.00000000E+00
  0.00000000E+00  0.00000000E+00  0.00000000E+00  0.00000000E+00  0.00000000E+00
  0.00000000E+00  0.00000000E+00  0.00000000E+00  0.00000000E+00  0.00000000E+00
  0.00000000E+00  0.00000000E+00  0.00000000E+00  0.00000000E+00  0.00000000E+00
  0.00000000E+00  0.00000000E+00  0.00000000E+00  0.00000000E+00  0.00000000E+00
  0.00000000E+00  6.10806574E+01  0.00000000E+00  0.00000000E+00  4.37282569E+01
  0.00000000E+00  0.00000000E+00  4.99033950E+01  0.00000000E+00  0.00000000E+00
  6.14423501E+01  0.00000000E+00  0.00000000E+00  7.11914693E+01  0.00000000E+00
  0.00000000E+00  7.33490019E+01  0.00000000E+00  0.00000000E+00  6.32588056E+01
  0.00000000E+00  0.00000000E+00  3.85974312E+01  0.00000000E+00  0.00000000E+00
  1.30684343E+01  0.00000000E+00  0.00000000E+00  1.47076700E+00  0.00000000E+00
  0.00000000E+00 -1.05451408E-01  0.00000000E+00  0.00000000E+00 -1.57563192E-02
  0.00000000E+00  0.00000000E+00 -1.93567241E-02  0.00000000E+00  0.00000000E+00
  2.63146741E-02  0.00000000E+00  0.00000000E+00  2.07287050E-02  0.00000000E+00
  0.00000000E+00  6.17717467E-03  0.00000000E+00  0.00000000E+00 -2.50319077E-03
  0.00000000E+00  0.00000000E+00  6.75365253E-04  0.00000000E+00  0.00000000E+00
 -7.78154339E-05  0.00000000E+00  0.00000000E+00  7.16461292E-06  0.00000000E+00
  0.00000000E+00  0.00000000E+00  0.00000000E+00  0.00000000E+00  0.00000000E+00
  0.00000000E+00  0.00000000E+00  0.00000000E+00  0.00000000E+00  0.00000000E+00
  0.00000000E+00  0.00000000E+00  0.00000000E+00  0.00000000E+00  0.00000000E+00
  0.00000000E+00  0.00000000E+00  0.00000000E+00  0.00000000E+00  0.00000000E+00
  0.00000000E+00  0.00000000E+00  0.00000000E+00  0.00000000E+00  0.00000000E+00
  0.00000000E+00  0.00000000E+00  0.00000000E+00  0.00000000E+00  0.00000000E+00
  0.00000000E+00  0.00000000E+00  0.00000000E+00  0.00000000E+00  0.00000000E+00
  0.00000000E+00  0.00000000E+00  0.00000000E+00  0.00000000E+00  0.00000000E+00
  0.00000000E+00  0.00000000E+00  0.00000000E+00  0.00000000E+00  0.00000000E+00
  0.00000000E+00  0.00000000E+00  0.00000000E+00  0.00000000E+00  0.00000000E+00
  0.00000000E+00  0.00000000E+00  0.00000000E+00  0.00000000E+00  0.00000000E+00
  0.00000000E+00  0.00000000E+00  0.00000000E+00  0.00000000E+00  0.00000000E+00
  0.00000000E+00  0.00000000E+00  0.00000000E+00  0.00000000E+00  0.00000000E+00
  0.00000000E+00  0.00000000E+00  0.00000000E+00  0.00000000E+00  0.00000000E+00
  0.00000000E+00  0.00000000E+00  0.00000000E+00  0.00000000E+00  0.00000000E+00
  0.00000000E+00  0.00000000E+00  0.00000000E+00  0.00000000E+00  0.00000000E+00
  0.00000000E+00  0.00000000E+00  0.00000000E+00  0.00000000E+00  0.00000000E+00
  0.00000000E+00  0.00000000E+00  0.00000000E+00  0.00000000E+00  0.00000000E+00
  0.00000000E+00  0.00000000E+00  0.00000000E+00  0.00000000E+00  0.00000000E+00
  0.00000000E+00  0.00000000E+00  0.00000000E+00  0.00000000E+00  0.00000000E+00
  0.00000000E+00  0.00000000E+00  0.00000000E+00  0.00000000E+00  0.00000000E+00
  0.00000000E+00  0.00000000E+00  0.00000000E+00  0.00000000E+00  0.00000000E+00
  0.00000000E+00  0.00000000E+00  0.00000000E+00  0.00000000E+00
MO    8                     OCC NO =   1.00000000 ORB. ENERGY =  -3.27208799
  0.00000000E+00  0.00000000E+00  0.00000000E+00  0.00000000E+00  0.00000000E+00
  0.00000000E+00  0.00000000E+00  0.00000000E+00  0.00000000E+00  0.00000000E+00
  0.00000000E+00  0.00000000E+00  0.00000000E+00  0.00000000E+00  0.00000000E+00
  0.00000000E+00  0.00000000E+00  0.00000000E+00  0.00000000E+00  0.00000000E+00
  0.00000000E+00  0.00000000E+00  0.00000000E+00  0.00000000E+00 -2.36601767E+01
  0.00000000E+00  0.00000000E+00 -1.69385584E+01  0.00000000E+00  0.00000000E+00
 -1.93305572E+01  0.00000000E+00  0.00000000E+00 -2.38002818E+01  0.00000000E+00
  0.00000000E+00 -2.75766964E+01  0.00000000E+00  0.00000000E+00 -2.84124373E+01
  0.00000000E+00  0.00000000E+00 -2.45039032E+01  0.00000000E+00  0.00000000E+00
 -1.49510841E+01  0.00000000E+00  0.00000000E+00 -5.06218300E+00  0.00000000E+00
  0.00000000E+00 -5.69715660E-01  0.00000000E+00  0.00000000E+00  3.13763782E-01
  0.00000000E+00  0.00000000E+00 -2.07707073E+00  0.00000000E+00  0.00000000E+00
 -2.55169273E+00  0.00000000E+00  0.00000000E+00  3.46892182E+00  0.00000000E+00
  0.00000000E+00  2.73255359E+00  0.00000000E+00  0.00000000E+00  8.14303681E-01
  0.00000000E+00  0.00000000E+00  6.26726598E-02  0.00000000E+00  0.00000000E+00
  9.46682667E-04  0.00000000E+00  0.00000000E+00 -5.04513581E-05  0.00000000E+00
  0.00000000E+00  7.51666919E-06  0.00000000E+00  0.00000000E+00  0.00000000E+00
  0.00000000E+00  0.00000000E+00  0.00000000E+00  0.00000000E+00  0.00000000E+00
  0.00000000E+00  0.00000000E+00  0.00000000E+00  0.00000000E+00  0.00000000E+00
  0.00000000E+00  0.00000000E+00  0.00000000E+00  0.00000000E+00  0.00000000E+00
  0.00000000E+00  0.00000000E+00  0.00000000E+00  0.00000000E+00  0.00000000E+00
  0.00000000E+00  0.00000000E+00  0.00000000E+00  0.00000000E+00  0.00000000E+00