atomref-proatoms Pd_q0_mult1_nist file:dyall-v2z-ni-pd-pt
GAUSSIAN             46 MOL ORBITALS    143 PRIMITIVES        1 NUCLEI
  Pd   1    (CENTRE  1)   0.00000000  0.00000000  0.00000000  CHARGE = 46.0
CENTRE ASSIGNMENTS    1  1  1  1  1  1  1  1  1  1  1  1  1  1  1  1  1  1  1  1
CENTRE ASSIGNMENTS    1  1  1  1  1  1  1  1  1  1  1  1  1  1  1  1  1  1  1  1
CENTRE ASSIGNMENTS    1  1  1  1  1  1  1  1  1  1  1  1  1  1  1  1  1  1  1  1
CENTRE ASSIGNMENTS    1  1  1  1  1  1  1  1  1  1  1  1  1  1  1  1  1  1  1  1
CENTRE ASSIGNMENTS    1  1  1  1  1  1  1  1  1  1  1  1  1  1  1  1  1  1  1  1
CENTRE ASSIGNMENTS    1  1  1  1  1  1  1  1  1  1  1  1  1  1  1  1  1  1  1  1
CENTRE ASSIGNMENTS    1  1  1  1  1  1  1  1  1  1  1  1  1  1  1  1  1  1  1  1
CENTRE ASSIGNMENTS    1  1  1
TYPE ASSIGNMENTS      1  1  1  1  1  1  1  1  1  1  1  1  1  1  1  1  1  1  1  1
TYPE ASSIGNMENTS      1  2  3  4  2  3  4  2  3  4  2  3  4  2  3  4  2  3  4  2
TYPE ASSIGNMENTS      3  4  2  3  4  2  3  4  2  3  4  2  3  4  2  3  4  2  3  4
TYPE ASSIGNMENTS      2  3  4  5  8  9  6 10  7  5  8  9  6 10  7  5  8  9  6 10
TYPE ASSIGNMENTS      7  5  8  9  6 10  7  5  8  9  6 10  7  5  8  9  6 10  7  5
TYPE ASSIGNMENTS      8  9  6 10  7  5  8  9  6 10  7  5  8  9  6 10  7  5  8  9
TYPE ASSIGNMENTS      6 10  7 11 14 15 17 20 18 12 16 19 13 11 14 15 17 20 18 12
TYPE ASSIGNMENTS     16 19 13
EXPONENTS  4.2250138E+07 7.0886856E+06 1.5971121E+06 4.2493240E+05 1.2830722E+05
EXPONENTS  4.2780532E+04 1.5468713E+04 5.9822261E+03 2.4475750E+03 1.0499238E+03
EXPONENTS  4.6850207E+02 2.1446276E+02 9.1255804E+01 4.4856634E+01 2.2050180E+01
EXPONENTS  9.4214589E+00 4.5974026E+00 1.5799083E+00 6.6946587E-01 1.0203185E-01
EXPONENTS  3.7742291E-02 4.3404148E+04 4.3404148E+04 4.3404148E+04 7.1285296E+03
EXPONENTS  7.1285296E+03 7.1285296E+03 1.8590859E+03 1.8590859E+03 1.8590859E+03
EXPONENTS  6.1479018E+02 6.1479018E+02 6.1479018E+02 2.3415757E+02 2.3415757E+02
EXPONENTS  2.3415757E+02 9.7217993E+01 9.7217993E+01 9.7217993E+01 4.2527720E+01
EXPONENTS  4.2527720E+01 4.2527720E+01 1.8478880E+01 1.8478880E+01 1.8478880E+01
EXPONENTS  8.4296008E+00 8.4296008E+00 8.4296008E+00 3.9009725E+00 3.9009725E+00
EXPONENTS  3.9009725E+00 1.6338228E+00 1.6338228E+00 1.6338228E+00 6.4708906E-01
EXPONENTS  6.4708906E-01 6.4708906E-01 1.2988293E-01 1.2988293E-01 1.2988293E-01
EXPONENTS  3.9540680E-02 3.9540680E-02 3.9540680E-02 6.9281336E+02 6.9281336E+02
EXPONENTS  6.9281336E+02 6.9281336E+02 6.9281336E+02 6.9281336E+02 2.0191142E+02
EXPONENTS  2.0191142E+02 2.0191142E+02 2.0191142E+02 2.0191142E+02 2.0191142E+02
EXPONENTS  7.5842365E+01 7.5842365E+01 7.5842365E+01 7.5842365E+01 7.5842365E+01
EXPONENTS  7.5842365E+01 3.1980643E+01 3.1980643E+01 3.1980643E+01 3.1980643E+01
EXPONENTS  3.1980643E+01 3.1980643E+01 1.4164541E+01 1.4164541E+01 1.4164541E+01
EXPONENTS  1.4164541E+01 1.4164541E+01 1.4164541E+01 6.3798342E+00 6.3798342E+00
EXPONENTS  6.3798342E+00 6.3798342E+00 6.3798342E+00 6.3798342E+00 2.7449534E+00
EXPONENTS  2.7449534E+00 2.7449534E+00 2.7449534E+00 2.7449534E+00 2.7449534E+00
EXPONENTS  1.1395386E+00 1.1395386E+00 1.1395386E+00 1.1395386E+00 1.1395386E+00
EXPONENTS  1.1395386E+00 4.2539560E-01 4.2539560E-01 4.2539560E-01 4.2539560E-01
EXPONENTS  4.2539560E-01 4.2539560E-01 1.3646219E-01 1.3646219E-01 1.3646219E-01
EXPONENTS  1.3646219E-01 1.3646219E-01 1.3646219E-01 1.1717981E+00 1.1717981E+00
EXPONENTS  1.1717981E+00 1.1717981E+00 1.1717981E+00 1.1717981E+00 1.1717981E+00
EXPONENTS  1.1717981E+00 1.1717981E+00 1.1717981E+00 1.6728726E-01 1.6728726E-01
EXPONENTS  1.6728726E-01 1.6728726E-01 1.6728726E-01 1.6728726E-01 1.6728726E-01
EXPONENTS  1.6728726E-01 1.6728726E-01 1.6728726E-01
MO    1                     OCC NO =   1.00000000 ORB. ENERGY = -889.83286959
  5.96679016E+01  3.29452708E+01  3.10107652E+01  2.49166987E+01  2.59471785E+01
  2.53947975E+01  2.93099598E+01  3.24606104E+01  3.64883621E+01  3.54616512E+01
  2.54918627E+01  9.72033973E+00  9.39440826E-01 -6.95958989E-02  1.91413504E-02
 -4.67263158E-03  1.28282640E-03 -1.95084764E-04  3.96201261E-05 -2.12930479E-06
  4.61311580E-07  0.00000000E+00  0.00000000E+00  0.00000000E+00  0.00000000E+00
  0.00000000E+00  0.00000000E+00  0.00000000E+00  0.00000000E+00  0.00000000E+00
  0.00000000E+00  0.00000000E+00  0.00000000E+00  0.00000000E+00  0.00000000E+00
  0.00000000E+00  0.00000000E+00  0.00000000E+00  0.00000000E+00  0.00000000E+00
  0.00000000E+00  0.00000000E+00  0.00000000E+00  0.00000000E+00  0.00000000E+00
  0.00000000E+00  0.00000000E+00  0.00000000E+00  0.00000000E+00  0.00000000E+00
  0.00000000E+00  0.00000000E+00  0.00000000E+00  0.00000000E+00  0.00000000E+00
  0.00000000E+00  0.00000000E+00  0.00000000E+00  0.00000000E+00  0.00000000E+00
  0.00000000E+00  0.00000000E+00  0.00000000E+00  0.00000000E+00  0.00000000E+00
  0.00000000E+00  0.00000000E+00  0.00000000E+00  0.00000000E+00  0.00000000E+00
  0.00000000E+00  0.00000000E+00  0.00000000E+00  0.00000000E+00  0.00000000E+00
  0.00000000E+00  0.00000000E+00  0.00000000E+00  0.00000000E+00  0.00000000E+00
  0.00000000E+00  0.00000000E+00  0.00000000E+00  0.00000000E+00  0.00000000E+00
  0.00000000E+00  0.00000000E+00  0.00000000E+00  0.00000000E+00  0.00000000E+00
  0.00000000E+00  0.00000000E+00  0.00000000E+00  0.00000000E+00  0.00000000E+00
  0.00000000E+00  0.00000000E+00  0.00000000E+00  0.00000000E+00  0.00000000E+00
  0.00000000E+00  0.00000000E+00  0.00000000E+00  0.00000000E+00  0.00000000E+00
  0.00000000E+00  0.00000000E+00  0.00000000E+00  0.00000000E+00  0.00000000E+00
  0.00000000E+00  0.00000000E+00  0.00000000E+00  0.00000000E+00  0.00000000E+00
  0.00000000E+00  0.00000000E+00  0.00000000E+00  0.00000000E+00  0.00000000E+00
  0.00000000E+00  0.00000000E+00  0.00000000E+00  0.00000000E+00  0.00000000E+00
  0.00000000E+00  0.00000000E+00  0.00000000E+00  0.00000000E+00  0.00000000E+00
  0.00000000E+00  0.00000000E+00  0.00000000E+00  0.00000000E+00  0.00000000E+00
  0.00000000E+00  0.00000000E+00  0.00000000E+00  0.00000000E+00  0.00000000E+00
  0.00000000E+00  0.00000000E+00  0.00000000E+00
MO    2                     OCC NO =   1.00000000 ORB. ENERGY = -130.69025991
 -2.02788250E+01 -1.12058360E+01 -1.05545684E+01 -8.50686866E+00 -8.89642066E+00
 -8.77058435E+00 -1.02939221E+01 -1.16777721E+01 -1.39918178E+01 -1.51795693E+01
 -1.39105500E+01 -6.62419414E+00  4.50875402E+00  7.32557138E+00  2.50207143E+00
  1.12731554E-01 -6.13746911E-03  5.79653312E-04 -1.15746588E-04  5.58846527E-06
 -1.20777137E-06  0.00000000E+00  0.00000000E+00  0.00000000E+00  0.00000000E+00
  0.00000000E+00  0.00000000E+00  0.00000000E+00  0.00000000E+00  0.00000000E+00
  0.00000000E+00  0.00000000E+00  0.00000000E+00  0.00000000E+00  0.00000000E+00
  0.00000000E+00  0.00000000E+00  0.00000000E+00  0.00000000E+00  0.00000000E+00
  0.00000000E+00  0.00000000E+00  0.00000000E+00  0.00000000E+00  0.00000000E+00
  0.00000000E+00  0.00000000E+00  0.00000000E+00  0.00000000E+00  0.00000000E+00
  0.00000000E+00  0.00000000E+00  0.00000000E+00  0.00000000E+00  0.00000000E+00
  0.00000000E+00  0.00000000E+00  0.00000000E+00  0.00000000E+00  0.00000000E+00
  0.00000000E+00  0.00000000E+00  0.00000000E+00  0.00000000E+00  0.00000000E+00
  0.00000000E+00  0.00000000E+00  0.00000000E+00  0.00000000E+00  0.00000000E+00
  0.00000000E+00  0.00000000E+00  0.00000000E+00  0.00000000E+00  0.00000000E+00
  0.00000000E+00  0.00000000E+00  0.00000000E+00  0.00000000E+00  0.00000000E+00
  0.00000000E+00  0.00000000E+00  0.00000000E+00  0.00000000E+00  0.00000000E+00
  0.00000000E+00  0.00000000E+00  0.00000000E+00  0.00000000E+00  0.00000000E+00
  0.00000000E+00  0.00000000E+00  0.00000000E+00  0.00000000E+00  0.00000000E+00
  0.00000000E+00  0.00000000E+00  0.00000000E+00  0.00000000E+00  0.00000000E+00
  0.00000000E+00  0.00000000E+00  0.00000000E+00  0.00000000E+00  0.00000000E+00
  0.00000000E+00  0.00000000E+00  0.00000000E+00  0.00000000E+00  0.00000000E+00
  0.00000000E+00  0.00000000E+00  0.00000000E+00  0.00000000E+00  0.00000000E+00
  0.00000000E+00  0.00000000E+00  0.00000000E+00  0.00000000E+00  0.00000000E+00
  0.00000000E+00  0.00000000E+00  0.00000000E+00  0.00000000E+00  0.00000000E+00
  0.00000000E+00  0.00000000E+00  0.00000000E+00  0.00000000E+00  0.00000000E+00
  0.00000000E+00  0.00000000E+00  0.00000000E+00  0.00000000E+00  0.00000000E+00
  0.00000000E+00  0.00000000E+00  0.00000000E+00  0.00000000E+00  0.00000000E+00
  0.00000000E+00  0.00000000E+00  0.00000000E+00
MO    3                     OCC NO =   1.00000000 ORB. ENERGY = -23.89129610
  8.78013055E+00  4.85163460E+00  4.57147226E+00  3.68385833E+00  3.85941396E+00
  3.80079429E+00  4.48650150E+00  5.08205396E+00  6.18856444E+00  6.75898428E+00
  6.53217930E+00  3.17995926E+00 -2.77996743E+00 -6.43116691E+00 -2.29333507E+00
  2.53774331E+00  1.44057635E+00  5.67887544E-02 -4.93469111E-03  2.24652843E-04
 -4.78180900E-05  0.00000000E+00  0.00000000E+00  0.00000000E+00  0.00000000E+00
  0.00000000E+00  0.00000000E+00  0.00000000E+00  0.00000000E+00  0.00000000E+00
  0.00000000E+00  0.00000000E+00  0.00000000E+00  0.00000000E+00  0.00000000E+00
  0.00000000E+00  0.00000000E+00  0.00000000E+00  0.00000000E+00  0.00000000E+00
  0.00000000E+00  0.00000000E+00  0.00000000E+00  0.00000000E+00  0.00000000E+00
  0.00000000E+00  0.00000000E+00  0.00000000E+00  0.00000000E+00  0.00000000E+00
  0.00000000E+00  0.00000000E+00  0.00000000E+00  0.00000000E+00  0.00000000E+00
  0.00000000E+00  0.00000000E+00  0.00000000E+00  0.00000000E+00  0.00000000E+00
  0.00000000E+00  0.00000000E+00  0.00000000E+00  0.00000000E+00  0.00000000E+00
  0.00000000E+00  0.00000000E+00  0.00000000E+00  0.00000000E+00  0.00000000E+00
  0.00000000E+00  0.00000000E+00  0.00000000E+00  0.00000000E+00  0.00000000E+00
  0.00000000E+00  0.00000000E+00  0.00000000E+00  0.00000000E+00  0.00000000E+00
  0.00000000E+00  0.00000000E+00  0.00000000E+00  0.00000000E+00  0.00000000E+00
  0.00000000E+00  0.00000000E+00  0.00000000E+00  0.00000000E+00  0.00000000E+00
  0.00000000E+00  0.00000000E+00  0.00000000E+00  0.00000000E+00  0.00000000E+00
  0.00000000E+00  0.00000000E+00  0.00000000E+00  0.00000000E+00  0.00000000E+00
  0.00000000E+00  0.00000000E+00  0.00000000E+00  0.00000000E+00  0.00000000E+00
  0.00000000E+00  0.00000000E+00  0.00000000E+00  0.00000000E+00  0.00000000E+00
  0.00000000E+00  0.00000000E+00  0.00000000E+00  0.00000000E+00  0.00000000E+00
  0.00000000E+00  0.00000000E+00  0.00000000E+00  0.00000000E+00  0.00000000E+00
  0.00000000E+00  0.00000000E+00  0.00000000E+00  0.00000000E+00  0.00000000E+00
  0.00000000E+00  0.00000000E+00  0.00000000E+00  0.00000000E+00  0.00000000E+00
  0.00000000E+00  0.00000000E+00  0.00000000E+00  0.00000000E+00  0.00000000E+00
  0.00000000E+00  0.00000000E+00  0.00000000E+00  0.00000000E+00  0.00000000E+00
  0.00000000E+00  0.00000000E+00  0.00000000E+00
MO    4                     OCC NO =   1.00000000 ORB. ENERGY =  -3.30870637
 -3.73227252E+00 -2.06249300E+00 -1.94323287E+00 -1.56638494E+00 -1.64054552E+00
 -1.61721033E+00 -1.90731901E+00 -2.16643618E+00 -2.63473659E+00 -2.89965007E+00
 -2.80393571E+00 -1.40311894E+00  1.30101803E+00  3.08652901E+00  1.27731199E+00
 -2.01108582E+00 -1.47526651E+00  7.93259611E-01  3.21512801E-01  2.51719135E-03
 -3.88758041E-04  0.00000000E+00  0.00000000E+00  0.00000000E+00  0.00000000E+00
  0.00000000E+00  0.00000000E+00  0.00000000E+00  0.00000000E+00  0.00000000E+00
  0.00000000E+00  0.00000000E+00  0.00000000E+00  0.00000000E+00  0.00000000E+00
  0.00000000E+00  0.00000000E+00  0.00000000E+00  0.00000000E+00  0.00000000E+00
  0.00000000E+00  0.00000000E+00  0.00000000E+00  0.00000000E+00  0.00000000E+00
  0.00000000E+00  0.00000000E+00  0.00000000E+00  0.00000000E+00  0.00000000E+00
  0.00000000E+00  0.00000000E+00  0.00000000E+00  0.00000000E+00  0.00000000E+00
  0.00000000E+00  0.00000000E+00  0.00000000E+00  0.00000000E+00  0.00000000E+00
  0.00000000E+00  0.00000000E+00  0.00000000E+00  0.00000000E+00  0.00000000E+00
  0.00000000E+00  0.00000000E+00  0.00000000E+00  0.00000000E+00  0.00000000E+00
  0.00000000E+00  0.00000000E+00  0.00000000E+00  0.00000000E+00  0.00000000E+00
  0.00000000E+00  0.00000000E+00  0.00000000E+00  0.00000000E+00  0.00000000E+00
  0.00000000E+00  0.00000000E+00  0.00000000E+00  0.00000000E+00  0.00000000E+00
  0.00000000E+00  0.00000000E+00  0.00000000E+00  0.00000000E+00  0.00000000E+00
  0.00000000E+00  0.00000000E+00  0.00000000E+00  0.00000000E+00  0.00000000E+00
  0.00000000E+00  0.00000000E+00  0.00000000E+00  0.00000000E+00  0.00000000E+00
  0.00000000E+00  0.00000000E+00  0.00000000E+00  0.00000000E+00  0.00000000E+00
  0.00000000E+00  0.00000000E+00  0.00000000E+00  0.00000000E+00  0.00000000E+00
  0.00000000E+00  0.00000000E+00  0.00000000E+00  0.00000000E+00  0.00000000E+00
  0.00000000E+00  0.00000000E+00  0.00000000E+00  0.00000000E+00  0.00000000E+00
  0.00000000E+00  0.00000000E+00  0.00000000E+00  0.00000000E+00  0.00000000E+00
  0.00000000E+00  0.00000000E+00  0.00000000E+00  0.00000000E+00  0.00000000E+00
  0.00000000E+00  0.00000000E+00  0.00000000E+00  0.00000000E+00  0.00000000E+00
  0.00000000E+00  0.00000000E+00  0.00000000E+00  0.00000000E+00  0.00000000E+00
  0.00000000E+00  0.00000000E+00  0.00000000E+00
MO    5                     OCC NO =   1.00000000 ORB. ENERGY = -117.14857103
  0.00000000E+00  0.00000000E+00  0.00000000E+00  0.00000000E+00  0.00000000E+00
  0.00000000E+00  0.00000000E+00  0.00000000E+00  0.00000000E+00  0.00000000E+00
  0.00000000E+00  0.00000000E+00  0.00000000E+00  0.00000000E+00  0.00000000E+00
  0.00000000E+00  0.00000000E+00  0.00000000E+00  0.00000000E+00  0.00000000E+00
  0.00000000E+00  4.01942661E+02  0.00000000E+00  0.00000000E+00  2.76636652E+02
  0.00000000E+00  0.00000000E+00  2.74781054E+02  0.00000000E+00  0.00000000E+00
  2.88205023E+02  0.00000000E+00  0.00000000E+00  2.66630748E+02  0.00000000E+00
  0.00000000E+00  1.74891189E+02  0.00000000E+00  0.00000000E+00  5.99236127E+01
  0.00000000E+00  0.00000000E+00  6.15793266E+00  0.00000000E+00  0.00000000E+00
 -5.56923338E-02  0.00000000E+00  0.00000000E+00  2.29363251E-02  0.00000000E+00
  0.00000000E+00 -3.13028458E-03  0.00000000E+00  0.00000000E+00  3.13436217E-04
  0.00000000E+00  0.00000000E+00 -1.01419479E-05  0.00000000E+00  0.00000000E+00
  8.63961990E-07  0.00000000E+00  0.00000000E+00  0.00000000E+00  0.00000000E+00
  0.00000000E+00  0.00000000E+00  0.00000000E+00  0.00000000E+00  0.00000000E+00
  0.00000000E+00  0.00000000E+00  0.00000000E+00  0.00000000E+00  0.00000000E+00
  0.00000000E+00  0.00000000E+00  0.00000000E+00  0.00000000E+00  0.00000000E+00
  0.00000000E+00  0.00000000E+00  0.00000000E+00  0.00000000E+00  0.00000000E+00
  0.00000000E+00  0.00000000E+00  0.00000000E+00  0.00000000E+00  0.00000000E+00
  0.00000000E+00  0.00000000E+00  0.00000000E+00  0.00000000E+00  0.00000000E+00
  0.00000000E+00  0.00000000E+00  0.00000000E+00  0.00000000E+00  0.00000000E+00
  0.00000000E+00  0.00000000E+00  0.00000000E+00  0.00000000E+00  0.00000000E+00
  0.00000000E+00  0.00000000E+00  0.00000000E+00  0.00000000E+00  0.00000000E+00
  0.00000000E+00  0.00000000E+00  0.00000000E+00  0.00000000E+00  0.00000000E+00
  0.00000000E+00  0.00000000E+00  0.00000000E+00  0.00000000E+00  0.00000000E+00
  0.00000000E+00  0.00000000E+00  0.00000000E+00  0.00000000E+00  0.00000000E+00
  0.00000000E+00  0.00000000E+00  0.00000000E+00  0.00000000E+00  0.00000000E+00
  0.00000000E+00  0.00000000E+00  0.00000000E+00  0.00000000E+00  0.00000000E+00
  0.00000000E+00  0.00000000E+00  0.00000000E+00  0.00000000E+00  0.00000000E+00
  0.00000000E+00  0.00000000E+00  0.00000000E+00
MO    6                     OCC NO =   1.00000000 ORB. ENERGY = -117.14857103
  0.00000000E+00  0.00000000E+00  0.00000000E+00  0.00000000E+00  0.00000000E+00
  0.00000000E+00  0.00000000E+00  0.00000000E+00  0.00000000E+00  0.00000000E+00
  0.00000000E+00  0.00000000E+00  0.00000000E+00  0.00000000E+00  0.00000000E+00
  0.00000000E+00  0.00000000E+00  0.00000000E+00  0.00000000E+00  0.00000000E+00
  0.00000000E+00  0.00000000E+00  4.01942661E+02  0.00000000E+00  0.00000000E+00
  2.76636652E+02  0.00000000E+00  0.00000000E+00  2.74781054E+02  0.00000000E+00
  0.00000000E+00  2.88205023E+02  0.00000000E+00  0.00000000E+00  2.66630748E+02
  0.00000000E+00  0.00000000E+00  1.74891189E+02  0.00000000E+00  0.00000000E+00
  5.99236127E+01  0.00000000E+00  0.00000000E+00  6.15793266E+00  0.00000000E+00
  0.00000000E+00 -5.56923338E-02  0.00000000E+00  0.00000000E+00  2.29363251E-02
  0.00000000E+00  0.00000000E+00 -3.13028458E-03  0.00000000E+00  0.00000000E+00
  3.13436217E-04  0.00000000E+00  0.00000000E+00 -1.01419479E-05  0.00000000E+00
  0.00000000E+00  8.63961990E-07  0.00000000E+00  0.00000000E+00  0.00000000E+00
  0.00000000E+00  0.00000000E+00  0.00000000E+00  0.00000000E+00  0.00000000E+00
  0.00000000E+00  0.00000000E+00  0.00000000E+00  0.00000000E+00  0.00000000E+00
  0.00000000E+00  0.00000000E+00  0.00000000E+00  0.00000000E+00  0.00000000E+00
  0.00000000E+00  0.00000000E+00  0.00000000E+00  0.00000000E+00  0.00000000E+00
  0.00000000E+00  0.00000000E+00  0.00000000E+00  0.00000000E+00  0.00000000E+00
  0.00000000E+00  0.00000000E+00  0.00000000E+00  0.00000000E+00  0.00000000E+00
  0.00000000E+00  0.00000000E+00  0.00000000E+00  0.00000000E+00  0.00000000E+00
  0.00000000E+00  0.00000000E+00  0.00000000E+00  0.00000000E+00  0.00000000E+00
  0.00000000E+00  0.00000000E+00  0.00000000E+00  0.00000000E+00  0.00000000E+00
  0.00000000E+00  0.00000000E+00  0.00000000E+00  0.00000000E+00  0.00000000E+00
  0.00000000E+00  0.00000000E+00  0.00000000E+00  0.00000000E+00  0.00000000E+00
  0.00000000E+00  0.00000000E+00  0.00000000E+00  0.00000000E+00  0.00000000E+00
  0.00000000E+00  0.00000000E+00  0.00000000E+00  0.00000000E+00  0.00000000E+00
  0.00000000E+00  0.00000000E+00  0.00000000E+00  0.00000000E+00  0.00000000E+00
  0.00000000E+00  0.00000000E+00  0.00000000E+00  0.00000000E+00  0.00000000E+00
  0.00000000E+00  0.00000000E+00  0.00000000E+00
MO    7                     OCC NO =   1.00000000 ORB. ENERGY = -117.14857103
  0.00000000E+00  0.00000000E+00  0.00000000E+00  0.00000000E+00  0.00000000E+00
  0.00000000E+00  0.00000000E+00  0.00000000E+00  0.00000000E+00  0.00000000E+00
  0.00000000E+00  0.00000000E+00  0.00000000E+00  0.00000000E+00  0.00000000E+00
  0.00000000E+00  0.00000000E+00  0.00000000E+00  0.00000000E+00  0.00000000E+00
  0.00000000E+00  0.00000000E+00  0.00000000E+00  4.01942661E+02  0.00000000E+00
  0.00000000E+00  2.76636652E+02  0.00000000E+00  0.00000000E+00  2.74781054E+02
  0.00000000E+00  0.00000000E+00  2.88205023E+02  0.00000000E+00  0.00000000E+00
  2.66630748E+02  0.00000000E+00  0.00000000E+00  1.74891189E+02  0.00000000E+00
  0.00000000E+00  5.99236127E+01  0.00000000E+00  0.00000000E+00  6.15793266E+00
  0.00000000E+00  0.00000000E+00 -5.56923338E-02  0.00000000E+00  0.00000000E+00
  2.29363251E-02  0.00000000E+00  0.00000000E+00 -3.13028458E-03  0.00000000E+00
  0.00000000E+00  3.13436217E-04  0.00000000E+00  0.00000000E+00 -1.01419479E-05
  0.00000000E+00  0.00000000E+00  8.63961990E-07  0.00000000E+00  0.00000000E+00
  0.00000000E+00  0.00000000E+00  0.00000000E+00  0.00000000E+00  0.00000000E+00
  0.00000000E+00  0.00000000E+00  0.00000000E+00  0.00000000E+00  0.00000000E+00
  0.00000000E+00  0.00000000E+00  0.00000000E+00  0.00000000E+00  0.00000000E+00
  0.00000000E+00  0.00000000E+00  0.00000000E+00  0.00000000E+00  0.00000000E+00
  0.00000000E+00  0.00000000E+00  0.00000000E+00  0.00000000E+00  0.00000000E+00
  0.00000000E+00  0.00000000E+00  0.00000000E+00  0.00000000E+00  0.00000000E+00
  0.00000000E+00  0.00000000E+00  0.00000000E+00  0.00000000E+00  0.00000000E+00
  0.00000000E+00  0.00000000E+00  0.00000000E+00  0.00000000E+00  0.00000000E+00
  0.00000000E+00  0.00000000E+00  0.00000000E+00  0.00000000E+00  0.00000000E+00
  0.00000000E+00  0.00000000E+00  0.00000000E+00  0.00000000E+00  0.00000000E+00
  0.00000000E+00  0.00000000E+00  0.00000000E+00  0.00000000E+00  0.00000000E+00
  0.00000000E+00  0.00000000E+00  0.00000000E+00  0.00000000E+00  0.00000000E+00
  0.00000000E+00  0.00000000E+00  0.00000000E+00  0.00000000E+00  0.00000000E+00
  0.00000000E+00  0.00000000E+00  0.00000000E+00  0.00000000E+00  0.00000000E+00
  0.00000000E+00  0.00000000E+00  0.00000000E+00  0.00000000E+00  0.00000000E+00
  0.00000000E+00  0.00000000E+00  0.00000000E+00
MO    8                     OCC NO =   1.00000000 ORB. ENERGY = -19.40400907
  0.00000000E+00  0.00000000E+00  0.00000000E+00  0.00000000E+00  0.00000000E+00
  0.00000000E+00  0.00000000E+00  0.00000000E+00  0.00000000E+00  0.00000000E+00
  0.00000000E+00  0.00000000E+00  0.00000000E+00  0.00000000E+00  0.00000000E+00
  0.00000000E+00  0.00000000E+00  0.00000000E+00  0.00000000E+00  0.00000000E+00
  0.00000000E+00 -1.80791956E+02  0.00000000E+00  0.00000000E+00 -1.25106698E+02
  0.00000000E+00  0.00000000E+00 -1.25247058E+02  0.00000000E+00  0.00000000E+00
 -1.34593196E+02  0.00000000E+00  0.00000000E+00 -1.30199072E+02  0.00000000E+00
  0.00000000E+00 -9.19842671E+01  0.00000000E+00  0.00000000E+00 -2.75510391E+01
  0.00000000E+00  0.00000000E+00  1.44693164E+01  0.00000000E+00  0.00000000E+00
  1.23559439E+01  0.00000000E+00  0.00000000E+00  2.10123654E+00  0.00000000E+00
  0.00000000E+00  4.31846178E-02  0.00000000E+00  0.00000000E+00 -3.71328123E-04
  0.00000000E+00  0.00000000E+00  1.42907536E-05  0.00000000E+00  0.00000000E+00
 -1.06750740E-06  0.00000000E+00  0.00000000E+00  0.00000000E+00  0.00000000E+00
  0.00000000E+00  0.00000000E+00  0.00000000E+00  0.00000000E+00  0.00000000E+00
  0.00000000E+00  0.00000000E+00  0.00000000E+00  0.00000000E+00  0.00000000E+00
  0.00000000E+00  0.00000000E+00  0.00000000E+00  0.00000000E+00  0.00000000E+00
  0.00000000E+00  0.00000000E+00  0.00000000E+00  0.00000000E+00  0.00000000E+00
  0.00000000E+00  0.00000000E+00  0.00000000E+00  0.00000000E+00  0.00000000E+00
  0.00000000E+00  0.00000000E+00  0.00000000E+00  0.00000000E+00  0.00000000E+00
  0.00000000E+00  0.00000000E+00  0.00000000E+00  0.00000000E+00  0.00000000E+00
  0.00000000E+00  0.00000000E+00  0.00000000E+00  0.00000000E+00  0.00000000E+00
  0.00000000E+00  0.00000000E+00  0.00000000E+00  0.00000000E+00  0.00000000E+00
  0.00000000E+00  0.00000000E+00  0.00000000E+00  0.00000000E+00  0.00000000E+00
  0.00000000E+00  0.00000000E+00  0.00000000E+00  0.00000000E+00  0.00000000E+00
  0.00000000E+00  0.00000000E+00  0.00000000E+00  0.00000000E+00  0.00000000E+00
  0.00000000E+00  0.00000000E+00  0.00000000E+00  0.00000000E+00  0.00000000E+00
  0.00000000E+00  0.00000000E+00  0.00000000E+00  0.00000000E+00  0.00000000E+00
  0.00000000E+00  0.00000000E+00  0.00000000E+00  0.00000000E+00  0.00000000E+00
  0.00000000E+00  0.00000000E+00  0.00000000E+00
MO    9                     OCC NO =   1.00000000 ORB. ENERGY = -19.40400907
  0.00000000E+00  0.00000000E+00  0.00000000E+00  0.00000000E+00  0.00000000E+00
  0.00000000E+00  0.00000000E+00  0.00000000E+00  0.00000000E+00  0.00000000E+00
  0.00000000E+00  0.00000000E+00  0.00000000E+00  0.00000000E+00  0.00000000E+00
  0.00000000E+00  0.00000000E+00  0.00000000E+00  0.00000000E+00  0.00000000E+00
  0.00000000E+00  0.00000000E+00 -1.80791956E+02  0.00000000E+00  0.00000000E+00
 -1.25106698E+02  0.00000000E+00  0.00000000E+00 -1.25247058E+02  0.00000000E+00
  0.00000000E+00 -1.34593196E+02  0.00000000E+00  0.00000000E+00 -1.30199072E+02
  0.00000000E+00  0.00000000E+00 -9.19842671E+01  0.00000000E+00  0.00000000E+00
 -2.75510391E+01  0.00000000E+00  0.00000000E+00  1.44693164E+01  0.00000000E+00
  0.00000000E+00  1.23559439E+01  0.00000000E+00  0.00000000E+00  2.10123654E+00
  0.00000000E+00  0.00000000E+00  4.31846178E-02  0.00000000E+00  0.00000000E+00
 -3.71328123E-04  0.00000000E+00  0.00000000E+00  1.42907536E-05  0.00000000E+00
  0.00000000E+00 -1.06750740E-06  0.00000000E+00  0.00000000E+00  0.00000000E+00
  0.00000000E+00  0.00000000E+00  0.00000000E+00  0.00000000E+00  0.00000000E+00
  0.00000000E+00  0.00000000E+00  0.00000000E+00  0.00000000E+00  0.00000000E+00
  0.00000000E+00  0.00000000E+00  0.00000000E+00  0.00000000E+00  0.00000000E+00
  0.00000000E+00  0.00000000E+00  0.00000000E+00  0.00000000E+00  0.00000000E+00
  0.00000000E+00  0.00000000E+00  0.00000000E+00  0.00000000E+00  0.00000000E+00
  0.00000000E+00  0.00000000E+00  0.00000000E+00  0.00000000E+00  0.00000000E+00
  0.00000000E+00  0.00000000E+00  0.00000000E+00  0.00000000E+00  0.00000000E+00
  0.00000000E+00  0.00000000E+00  0.00000000E+00  0.00000000E+00  0.00000000E+00
  0.00000000E+00  0.00000000E+00  0.00000000E+00  0.00000000E+00  0.00000000E+00
  0.00000000E+00  0.00000000E+00  0.00000000E+00  0.00000000E+00  0.00000000E+00
  0.00000000E+00  0.00000000E+00  0.00000000E+00  0.00000000E+00  0.00000000E+00
  0.00000000E+00  0.00000000E+00  0.00000000E+00  0.00000000E+00  0.00000000E+00
  0.00000000E+00  0.00000000E+00  0.00000000E+00  0.00000000E+00  0.00000000E+00
  0.00000000E+00  0.00000000E+00  0.00000000E+00  0.00000000E+00  0.00000000E+00
  0.00000000E+00  0.00000000E+00  0.00000000E+00  0.00000000E+00  0.00000000E+00
  0.00000000E+00  0.00000000E+00  0.00000000E+00
MO   10                    OCC NO =   1.00000000 ORB. ENERGY = -19.40400907
  0.00000000E+00  0.00000000E+00  0.00000000E+00  0.00000000E+00  0.00000000E+00
  0.00000000E+00  0.00000000E+00  0.00000000E+00  0.00000000E+00  0.00000000E+00
  0.00000000E+00  0.00000000E+00  0.00000000E+00  0.00000000E+00  0.00000000E+00
  0.00000000E+00  0.00000000E+00  0.00000000E+00  0.00000000E+00  0.00000000E+00
  0.00000000E+00  0.00000000E+00  0.00000000E+00 -1.80791956E+02  0.00000000E+00
  0.00000000E+00 -1.25106698E+02  0.00000000E+00  0.00000000E+00 -1.25247058E+02
  0.00000000E+00  0.00000000E+00 -1.34593196E+02  0.00000000E+00  0.00000000E+00
 -1.30199072E+02  0.00000000E+00  0.00000000E+00 -9.19842671E+01  0.00000000E+00
  0.00000000E+00 -2.75510391E+01  0.00000000E+00  0.00000000E+00  1.44693164E+01
  0.00000000E+00  0.00000000E+00  1.23559439E+01  0.00000000E+00  0.00000000E+00
  2.10123654E+00  0.00000000E+00  0.00000000E+00  4.31846178E-02  0.00000000E+00
  0.00000000E+00 -3.71328123E-04  0.00000000E+00  0.00000000E+00  1.42907536E-05
  0.00000000E+00  0.00000000E+00 -1.06750740E-06  0.00000000E+00  0.00000000E+00
  0.00000000E+00  0.00000000E+00  0.00000000E+00  0.00000000E+00  0.00000000E+00
  0.00000000E+00  0.00000000E+00  0.00000000E+00  0.00000000E+00  0.00000000E+00
  0.00000000E+00  0.00000000E+00  0.00000000E+00  0.00000000E+00  0.00000000E+00
  0.00000000E+00  0.00000000E+00  0.00000000E+00  0.00000000E+00  0.00000000E+00
  0.00000000E+00  0.00000000E+00  0.00000000E+00  0.00000000E+00  0.00000000E+00
  0.00000000E+00  0.00000000E+00  0.00000000E+00  0.00000000E+00  0.00000000E+00
  0.00000000E+00  0.00000000E+00  0.00000000E+00  0.00000000E+00  0.00000000E+00
  0.00000000E+00  0.00000000E+00  0.00000000E+00  0.00000000E+00  0.00000000E+00
  0.00000000E+00  0.00000000E+00  0.00000000E+00  0.00000000E+00  0.00000000E+00
  0.00000000E+00  0.00000000E+00  0.00000000E+00  0.00000000E+00  0.00000000E+00
  0.00000000E+00  0.00000000E+00  0.00000000E+00  0.00000000E+00  0.00000000E+00
  0.00000000E+00  0.00000000E+00  0.00000000E+00  0.00000000E+00  0.00000000E+00
  0.00000000E+00  0.00000000E+00  0.00000000E+00  0.00000000E+00  0.00000000E+00
  0.00000000E+00  0.00000000E+00  0.00000000E+00  0.00000000E+00  0.00000000E+00
  0.00000000E+00  0.00000000E+00  0.00000000E+00  0.00000000E+00  0.00000000E+00
  0.00000000E+00  0.00000000E+00  0.00000000E+00
MO   11                    OCC NO =   1.00000000 ORB. ENERGY =  -2.01030016
  0.00000000E+00  0.00000000E+00  0.00000000E+00  0.00000000E+00  0.00000000E+00
  0.00000000E+00  0.00000000E+00  0.00000000E+00  0.00000000E+00  0.00000000E+00
  0.00000000E+00  0.00000000E+00  0.00000000E+00  0.00000000E+00  0.00000000E+00
  0.00000000E+00  0.00000000E+00  0.00000000E+00  0.00000000E+00  0.00000000E+00
  0.00000000E+00  7.21616233E+01  0.00000000E+00  0.00000000E+00  5.01231153E+01
  0.00000000E+00  0.00000000E+00  5.00250842E+01  0.00000000E+00  0.00000000E+00
  5.42991853E+01  0.00000000E+00  0.00000000E+00  5.25774456E+01  0.00000000E+00
  0.00000000E+00  3.80811179E+01  0.00000000E+00  0.00000000E+00  1.07092941E+01
  0.00000000E+00  0.00000000E+00 -8.00611278E+00  0.00000000E+00  0.00000000E+00
 -7.78148129E+00  0.00000000E+00  0.00000000E+00 -1.15848113E-01  0.00000000E+00
  0.00000000E+00  1.70252369E+00  0.00000000E+00  0.00000000E+00  3.85558882E-01
  0.00000000E+00  0.00000000E+00  4.09900866E-03  0.00000000E+00  0.00000000E+00
 -2.28671459E-04  0.00000000E+00  0.00000000E+00  0.00000000E+00  0.00000000E+00
  0.00000000E+00  0.00000000E+00  0.00000000E+00  0.00000000E+00  0.00000000E+00
  0.00000000E+00  0.00000000E+00  0.00000000E+00  0.00000000E+00  0.00000000E+00
  0.00000000E+00  0.00000000E+00  0.00000000E+00  0.00000000E+00  0.00000000E+00
  0.00000000E+00  0.00000000E+00  0.00000000E+00  0.00000000E+00  0.00000000E+00
  0.00000000E+00  0.00000000E+00  0.00000000E+00  0.00000000E+00  0.00000000E+00
  0.00000000E+00  0.00000000E+00  0.00000000E+00  0.00000000E+00  0.00000000E+00
  0.00000000E+00  0.00000000E+00  0.00000000E+00  0.00000000E+00  0.00000000E+00
  0.00000000E+00  0.00000000E+00  0.00000000E+00  0.00000000E+00  0.00000000E+00
  0.00000000E+00  0.00000000E+00  0.00000000E+00  0.00000000E+00  0.00000000E+00
  0.00000000E+00  0.00000000E+00  0.00000000E+00  0.00000000E+00  0.00000000E+00
  0.00000000E+00  0.00000000E+00  0.00000000E+00  0.00000000E+00  0.00000000E+00
  0.00000000E+00  0.00000000E+00  0.00000000E+00  0.00000000E+00  0.00000000E+00
  0.00000000E+00  0.00000000E+00  0.00000000E+00  0.00000000E+00  0.00000000E+00
  0.00000000E+00  0.00000000E+00  0.00000000E+00  0.00000000E+00  0.00000000E+00