atomref-proatoms B_q0_mult2_nist bse:cc-pVDZ
GAUSSIAN              7 MOL ORBITALS     27 PRIMITIVES        1 NUCLEI
  B    1    (CENTRE  1)   0.00000000  0.00000000  0.00000000  CHARGE = 5.0
CENTRE ASSIGNMENTS    1  1  1  1  1  1  1  1  1  1  1  1  1  1  1  1  1  1  1  1
CENTRE ASSIGNMENTS    1  1  1  1  1  1  1
TYPE ASSIGNMENTS      1  1  1  1  1  1  1  1  1  2  3  4  2  3  4  2  3  4  2  3
TYPE ASSIGNMENTS      4  5  8  9  6 10  7
EXPONENTS  4.5700000E+03 6.8590000E+02 1.5650000E+02 4.4470000E+01 1.4480000E+01
EXPONENTS  5.1310000E+00 1.8980000E+00 3.3290000E-01 1.0430000E-01 6.0010000E+00
EXPONENTS  6.0010000E+00 6.0010000E+00 1.2410000E+00 1.2410000E+00 1.2410000E+00
EXPONENTS  3.3640000E-01 3.3640000E-01 3.3640000E-01 9.5380000E-02 9.5380000E-02
EXPONENTS  9.5380000E-02 3.4300000E-01 3.4300000E-01 3.4300000E-01 3.4300000E-01
EXPONENTS  3.4300000E-01 3.4300000E-01
MO    1                     OCC NO =   1.00000000 ORB. ENERGY =  -6.91650761
  2.75361163E-01  5.10620781E-01  8.54568605E-01  1.24222169E+00  1.43679925E+00
  1.08545173E+00  3.32042311E-01  8.24909686E-03 -1.06773551E-03  0.00000000E+00
  0.00000000E+00  0.00000000E+00  0.00000000E+00  0.00000000E+00  0.00000000E+00
  0.00000000E+00  0.00000000E+00  0.00000000E+00  0.00000000E+00  0.00000000E+00
  0.00000000E+00  0.00000000E+00  0.00000000E+00  0.00000000E+00  0.00000000E+00
  0.00000000E+00  0.00000000E+00
MO    2                     OCC NO =   1.00000000 ORB. ENERGY =  -0.41860338
 -5.67496396E-02 -1.08061984E-01 -1.76954592E-01 -2.77714467E-01 -3.26479701E-01
 -3.50298452E-01 -1.58221098E-01  1.77782153E-01  7.24889803E-02  0.00000000E+00
  0.00000000E+00  0.00000000E+00  0.00000000E+00  0.00000000E+00  0.00000000E+00
  0.00000000E+00  0.00000000E+00  0.00000000E+00  0.00000000E+00  0.00000000E+00
  0.00000000E+00  0.00000000E+00  0.00000000E+00  0.00000000E+00  0.00000000E+00
  0.00000000E+00  0.00000000E+00
MO    3                     OCC NO =   0.33333333 ORB. ENERGY =  -0.13247689
  0.00000000E+00  0.00000000E+00  0.00000000E+00  0.00000000E+00  0.00000000E+00
  0.00000000E+00  0.00000000E+00  0.00000000E+00  0.00000000E+00  4.51884271E-01
  0.00000000E+00  0.00000000E+00  3.51794993E-01  0.00000000E+00  0.00000000E+00
  1.75513673E-01  0.00000000E+00  0.00000000E+00  3.88252926E-02  0.00000000E+00
  0.00000000E+00  0.00000000E+00  0.00000000E+00  0.00000000E+00  0.00000000E+00
  0.00000000E+00  0.00000000E+00
MO    4                     OCC NO =   0.33333333 ORB. ENERGY =  -0.13247689
  0.00000000E+00  0.00000000E+00  0.00000000E+00  0.00000000E+00  0.00000000E+00
  0.00000000E+00  0.00000000E+00  0.00000000E+00  0.00000000E+00  0.00000000E+00
  4.51884271E-01  0.00000000E+00  0.00000000E+00  3.51794993E-01  0.00000000E+00
  0.00000000E+00  1.75513673E-01  0.00000000E+00  0.00000000E+00  3.88252926E-02
  0.00000000E+00  0.00000000E+00  0.00000000E+00  0.00000000E+00  0.00000000E+00
  0.00000000E+00  0.00000000E+00
MO    5                     OCC NO =   0.33333333 ORB. ENERGY =  -0.13247689
  0.00000000E+00  0.00000000E+00  0.00000000E+00  0.00000000E+00  0.00000000E+00
  0.00000000E+00  0.00000000E+00  0.00000000E+00  0.00000000E+00  0.00000000E+00
  0.00000000E+00  4.51884271E-01  0.00000000E+00  0.00000000E+00  3.51794993E-01
  0.00000000E+00  0.00000000E+00  1.75513673E-01  0.00000000E+00  0.00000000E+00
  3.88252926E-02  0.00000000E+00  0.00000000E+00  0.00000000E+00  0.00000000E+00
  0.00000000E+00  0.00000000E+00
MO    7                     OCC NO =   1.00000000 ORB. ENERGY =  -6.90632966
  2.75421080E-01  5.10739393E-01  8.54756770E-01  1.24254960E+00  1.43719250E+00
  1.08602397E+00  3.32352912E-01  7.77444825E-03 -1.02873559E-03  0.00000000E+00
  0.00000000E+00  0.00000000E+00  0.00000000E+00  0.00000000E+00  0.00000000E+00
  0.00000000E+00  0.00000000E+00  0.00000000E+00  0.00000000E+00  0.00000000E+00
  0.00000000E+00  0.00000000E+00  0.00000000E+00  0.00000000E+00  0.00000000E+00
  0.00000000E+00  0.00000000E+00
MO    8                     OCC NO =   1.00000000 ORB. ENERGY =  -0.36598816
 -5.64043890E-02 -1.07323332E-01 -1.75854051E-01 -2.75401388E-01 -3.23621014E-01
 -3.44530172E-01 -1.54678819E-01  1.71543973E-01  7.48326186E-02  0.00000000E+00
  0.00000000E+00  0.00000000E+00  0.00000000E+00  0.00000000E+00  0.00000000E+00
  0.00000000E+00  0.00000000E+00  0.00000000E+00  0.00000000E+00  0.00000000E+00
  0.00000000E+00  0.00000000E+00  0.00000000E+00  0.00000000E+00  0.00000000E+00
  0.00000000E+00  0.00000000E+00
END DATA
SCF      ENERGY =     -24.579833404287   VIRIAL(-V/T)  =   2.00000000

$MOSPIN
 1 1 1 1 1 2 2
$END
