atomref-proatoms C_q0_mult3_nist bse:cc-pVDZ
GAUSSIAN              7 MOL ORBITALS     27 PRIMITIVES        1 NUCLEI
  C    1    (CENTRE  1)   0.00000000  0.00000000  0.00000000  CHARGE = 6.0
CENTRE ASSIGNMENTS    1  1  1  1  1  1  1  1  1  1  1  1  1  1  1  1  1  1  1  1
CENTRE ASSIGNMENTS    1  1  1  1  1  1  1
TYPE ASSIGNMENTS      1  1  1  1  1  1  1  1  1  2  3  4  2  3  4  2  3  4  2  3
TYPE ASSIGNMENTS      4  5  8  9  6 10  7
EXPONENTS  6.6650000E+03 1.0000000E+03 2.2800000E+02 6.4710000E+01 2.1060000E+01
EXPONENTS  7.4950000E+00 2.7970000E+00 5.2150000E-01 1.5960000E-01 9.4390000E+00
EXPONENTS  9.4390000E+00 9.4390000E+00 2.0020000E+00 2.0020000E+00 2.0020000E+00
EXPONENTS  5.4560000E-01 5.4560000E-01 5.4560000E-01 1.5170000E-01 1.5170000E-01
EXPONENTS  1.5170000E-01 5.5000000E-01 5.5000000E-01 5.5000000E-01 5.5000000E-01
EXPONENTS  5.5000000E-01 5.5000000E-01
MO    1                     OCC NO =   1.00000000 ORB. ENERGY = -10.37531343
  3.63355090E-01  6.74487107E-01  1.13089661E+00  1.65138150E+00  1.92179140E+00
  1.44289011E+00  4.36873600E-01  1.13021772E-02 -1.32904882E-03  0.00000000E+00
  0.00000000E+00  0.00000000E+00  0.00000000E+00  0.00000000E+00  0.00000000E+00
  0.00000000E+00  0.00000000E+00  0.00000000E+00  0.00000000E+00  0.00000000E+00
  0.00000000E+00  0.00000000E+00  0.00000000E+00  0.00000000E+00  0.00000000E+00
  0.00000000E+00  0.00000000E+00
MO    2                     OCC NO =   1.00000000 ORB. ENERGY =  -0.61567226
 -7.88397223E-02 -1.50366839E-01 -2.45924791E-01 -3.90478514E-01 -4.61828333E-01
 -5.03988859E-01 -2.05340681E-01  2.53536162E-01  9.88018009E-02  0.00000000E+00
  0.00000000E+00  0.00000000E+00  0.00000000E+00  0.00000000E+00  0.00000000E+00
  0.00000000E+00  0.00000000E+00  0.00000000E+00  0.00000000E+00  0.00000000E+00
  0.00000000E+00  0.00000000E+00  0.00000000E+00  0.00000000E+00  0.00000000E+00
  0.00000000E+00  0.00000000E+00
MO    3                     OCC NO =   0.66666667 ORB. ENERGY =  -0.23842788
  0.00000000E+00  0.00000000E+00  0.00000000E+00  0.00000000E+00  0.00000000E+00
  0.00000000E+00  0.00000000E+00  0.00000000E+00  0.00000000E+00  8.85174786E-01
  0.00000000E+00  0.00000000E+00  7.00352456E-01  0.00000000E+00  0.00000000E+00
  3.34793169E-01  0.00000000E+00  0.00000000E+00  6.47768944E-02  0.00000000E+00
  0.00000000E+00  0.00000000E+00  0.00000000E+00  0.00000000E+00  0.00000000E+00
  0.00000000E+00  0.00000000E+00
MO    4                     OCC NO =   0.66666667 ORB. ENERGY =  -0.23842788
  0.00000000E+00  0.00000000E+00  0.00000000E+00  0.00000000E+00  0.00000000E+00
  0.00000000E+00  0.00000000E+00  0.00000000E+00  0.00000000E+00  0.00000000E+00
  8.85174786E-01  0.00000000E+00  0.00000000E+00  7.00352456E-01  0.00000000E+00
  0.00000000E+00  3.34793169E-01  0.00000000E+00  0.00000000E+00  6.47768944E-02
  0.00000000E+00  0.00000000E+00  0.00000000E+00  0.00000000E+00  0.00000000E+00
  0.00000000E+00  0.00000000E+00
MO    5                     OCC NO =   0.66666667 ORB. ENERGY =  -0.23842788
  0.00000000E+00  0.00000000E+00  0.00000000E+00  0.00000000E+00  0.00000000E+00
  0.00000000E+00  0.00000000E+00  0.00000000E+00  0.00000000E+00  0.00000000E+00
  0.00000000E+00  8.85174786E-01  0.00000000E+00  0.00000000E+00  7.00352456E-01
  0.00000000E+00  0.00000000E+00  3.34793169E-01  0.00000000E+00  0.00000000E+00
  6.47768944E-02  0.00000000E+00  0.00000000E+00  0.00000000E+00  0.00000000E+00
  0.00000000E+00  0.00000000E+00
MO    7                     OCC NO =   1.00000000 ORB. ENERGY = -10.34423001
  3.63530731E-01  6.74835438E-01  1.13144629E+00  1.65235820E+00  1.92296914E+00
  1.44464669E+00  4.37698056E-01  9.88752978E-03 -1.19789221E-03  0.00000000E+00
  0.00000000E+00  0.00000000E+00  0.00000000E+00  0.00000000E+00  0.00000000E+00
  0.00000000E+00  0.00000000E+00  0.00000000E+00  0.00000000E+00  0.00000000E+00
  0.00000000E+00  0.00000000E+00  0.00000000E+00  0.00000000E+00  0.00000000E+00
  0.00000000E+00  0.00000000E+00
MO    8                     OCC NO =   1.00000000 ORB. ENERGY =  -0.48624192
 -7.77078044E-02 -1.47934232E-01 -2.42356792E-01 -3.82681042E-01 -4.52142874E-01
 -4.83747256E-01 -1.94861599E-01  2.32457329E-01  1.06540636E-01  0.00000000E+00
  0.00000000E+00  0.00000000E+00  0.00000000E+00  0.00000000E+00  0.00000000E+00
  0.00000000E+00  0.00000000E+00  0.00000000E+00  0.00000000E+00  0.00000000E+00
  0.00000000E+00  0.00000000E+00  0.00000000E+00  0.00000000E+00  0.00000000E+00
  0.00000000E+00  0.00000000E+00
END DATA
SCF      ENERGY =     -37.754905968529   VIRIAL(-V/T)  =   2.00000000

$MOSPIN
 1 1 1 1 1 2 2
$END
