atomref-proatoms F_q0_mult2_nist bse:cc-pVDZ
GAUSSIAN             10 MOL ORBITALS     27 PRIMITIVES        1 NUCLEI
  F    1    (CENTRE  1)   0.00000000  0.00000000  0.00000000  CHARGE = 9.0
CENTRE ASSIGNMENTS    1  1  1  1  1  1  1  1  1  1  1  1  1  1  1  1  1  1  1  1
CENTRE ASSIGNMENTS    1  1  1  1  1  1  1
TYPE ASSIGNMENTS      1  1  1  1  1  1  1  1  1  2  3  4  2  3  4  2  3  4  2  3
TYPE ASSIGNMENTS      4  5  8  9  6 10  7
EXPONENTS  1.4710000E+04 2.2070000E+03 5.0280000E+02 1.4260000E+02 4.6470000E+01
EXPONENTS  1.6700000E+01 6.3560000E+00 1.3160000E+00 3.8970000E-01 2.2670000E+01
EXPONENTS  2.2670000E+01 2.2670000E+01 4.9770000E+00 4.9770000E+00 4.9770000E+00
EXPONENTS  1.3470000E+00 1.3470000E+00 1.3470000E+00 3.4710000E-01 3.4710000E-01
EXPONENTS  3.4710000E-01 1.6400000E+00 1.6400000E+00 1.6400000E+00 1.6400000E+00
EXPONENTS  1.6400000E+00 1.6400000E+00
MO    1                     OCC NO =   1.00000000 ORB. ENERGY = -24.87803898
  6.85975988E-01  1.27355206E+00  2.13789616E+00  3.12814685E+00  3.63522575E+00
  2.63627844E+00  7.53566779E-01  1.79960459E-02 -1.79560919E-03  0.00000000E+00
  0.00000000E+00  0.00000000E+00  0.00000000E+00  0.00000000E+00  0.00000000E+00
  0.00000000E+00  0.00000000E+00  0.00000000E+00  0.00000000E+00  0.00000000E+00
  0.00000000E+00  0.00000000E+00  0.00000000E+00  0.00000000E+00  0.00000000E+00
  0.00000000E+00  0.00000000E+00
MO    2                     OCC NO =   1.00000000 ORB. ENERGY =  -1.25090787
 -1.58485543E-01 -3.02909047E-01 -4.95940768E-01 -7.92363254E-01 -9.43629450E-01
 -1.01637171E+00 -3.24028396E-01  4.99573086E-01  1.97520870E-01  0.00000000E+00
  0.00000000E+00  0.00000000E+00  0.00000000E+00  0.00000000E+00  0.00000000E+00
  0.00000000E+00  0.00000000E+00  0.00000000E+00  0.00000000E+00  0.00000000E+00
  0.00000000E+00  0.00000000E+00  0.00000000E+00  0.00000000E+00  0.00000000E+00
  0.00000000E+00  0.00000000E+00
MO    3                     OCC NO =   1.00000000 ORB. ENERGY =  -0.50339903
  0.00000000E+00  0.00000000E+00  0.00000000E+00  0.00000000E+00  0.00000000E+00
  0.00000000E+00  0.00000000E+00  0.00000000E+00  0.00000000E+00  3.21258390E+00
  0.00000000E+00  0.00000000E+00  2.53576429E+00  0.00000000E+00  0.00000000E+00
  1.06788619E+00  0.00000000E+00  0.00000000E+00  1.69339622E-01  0.00000000E+00
  0.00000000E+00  0.00000000E+00  0.00000000E+00  0.00000000E+00  0.00000000E+00
  0.00000000E+00  0.00000000E+00
MO    4                     OCC NO =   1.00000000 ORB. ENERGY =  -0.50339903
  0.00000000E+00  0.00000000E+00  0.00000000E+00  0.00000000E+00  0.00000000E+00
  0.00000000E+00  0.00000000E+00  0.00000000E+00  0.00000000E+00  0.00000000E+00
  3.21258390E+00  0.00000000E+00  0.00000000E+00  2.53576429E+00  0.00000000E+00
  0.00000000E+00  1.06788619E+00  0.00000000E+00  0.00000000E+00  1.69339622E-01
  0.00000000E+00  0.00000000E+00  0.00000000E+00  0.00000000E+00  0.00000000E+00
  0.00000000E+00  0.00000000E+00
MO    5                     OCC NO =   1.00000000 ORB. ENERGY =  -0.50339903
  0.00000000E+00  0.00000000E+00  0.00000000E+00  0.00000000E+00  0.00000000E+00
  0.00000000E+00  0.00000000E+00  0.00000000E+00  0.00000000E+00  0.00000000E+00
  0.00000000E+00  3.21258390E+00  0.00000000E+00  0.00000000E+00  2.53576429E+00
  0.00000000E+00  0.00000000E+00  1.06788619E+00  0.00000000E+00  0.00000000E+00
  1.69339622E-01  0.00000000E+00  0.00000000E+00  0.00000000E+00  0.00000000E+00
  0.00000000E+00  0.00000000E+00
MO    7                     OCC NO =   1.00000000 ORB. ENERGY = -24.84580879
  6.86135954E-01  1.27387071E+00  2.13839973E+00  3.12905033E+00  3.63633271E+00
  2.63791080E+00  7.54117088E-01  1.67417082E-02 -1.66634468E-03  0.00000000E+00
  0.00000000E+00  0.00000000E+00  0.00000000E+00  0.00000000E+00  0.00000000E+00
  0.00000000E+00  0.00000000E+00  0.00000000E+00  0.00000000E+00  0.00000000E+00
  0.00000000E+00  0.00000000E+00  0.00000000E+00  0.00000000E+00  0.00000000E+00
  0.00000000E+00  0.00000000E+00
MO    8                     OCC NO =   1.00000000 ORB. ENERGY =  -1.15747912
 -1.57333293E-01 -3.00451441E-01 -4.92275949E-01 -7.84551752E-01 -9.33713762E-01
 -9.96989699E-01 -3.17258062E-01  4.81108891E-01  2.04133831E-01  0.00000000E+00
  0.00000000E+00  0.00000000E+00  0.00000000E+00  0.00000000E+00  0.00000000E+00
  0.00000000E+00  0.00000000E+00  0.00000000E+00  0.00000000E+00  0.00000000E+00
  0.00000000E+00  0.00000000E+00  0.00000000E+00  0.00000000E+00  0.00000000E+00
  0.00000000E+00  0.00000000E+00
MO    9                     OCC NO =   0.66666667 ORB. ENERGY =  -0.37139245
  0.00000000E+00  0.00000000E+00  0.00000000E+00  0.00000000E+00  0.00000000E+00
  0.00000000E+00  0.00000000E+00  0.00000000E+00  0.00000000E+00  3.07460349E+00
  0.00000000E+00  0.00000000E+00  2.42685327E+00  0.00000000E+00  0.00000000E+00
  1.02202050E+00  0.00000000E+00  0.00000000E+00  1.82440388E-01  0.00000000E+00
  0.00000000E+00  0.00000000E+00  0.00000000E+00  0.00000000E+00  0.00000000E+00
  0.00000000E+00  0.00000000E+00
MO   10                     OCC NO =   0.66666667 ORB. ENERGY =  -0.37139245
  0.00000000E+00  0.00000000E+00  0.00000000E+00  0.00000000E+00  0.00000000E+00
  0.00000000E+00  0.00000000E+00  0.00000000E+00  0.00000000E+00  0.00000000E+00
  3.07460349E+00  0.00000000E+00  0.00000000E+00  2.42685327E+00  0.00000000E+00
  0.00000000E+00  1.02202050E+00  0.00000000E+00  0.00000000E+00  1.82440388E-01
  0.00000000E+00  0.00000000E+00  0.00000000E+00  0.00000000E+00  0.00000000E+00
  0.00000000E+00  0.00000000E+00
MO   11                    OCC NO =   0.66666667 ORB. ENERGY =  -0.37139245
  0.00000000E+00  0.00000000E+00  0.00000000E+00  0.00000000E+00  0.00000000E+00
  0.00000000E+00  0.00000000E+00  0.00000000E+00  0.00000000E+00  0.00000000E+00
  0.00000000E+00  3.07460349E+00  0.00000000E+00  0.00000000E+00  2.42685327E+00
  0.00000000E+00  0.00000000E+00  1.02202050E+00  0.00000000E+00  0.00000000E+00
  1.82440388E-01  0.00000000E+00  0.00000000E+00  0.00000000E+00  0.00000000E+00
  0.00000000E+00  0.00000000E+00
END DATA
SCF      ENERGY =     -99.564956382560   VIRIAL(-V/T)  =   2.00000000

$MOSPIN
 1 1 1 1 1 2 2 2 2 2
$END
