atomref-proatoms H_q0_mult2_nist bse:cc-pVDZ
GAUSSIAN              1 MOL ORBITALS      7 PRIMITIVES        1 NUCLEI
  H    1    (CENTRE  1)   0.00000000  0.00000000  0.00000000  CHARGE = 1.0
CENTRE ASSIGNMENTS    1  1  1  1  1  1  1
TYPE ASSIGNMENTS      1  1  1  1  2  3  4
EXPONENTS  1.3010000E+01 1.9620000E+00 4.4460000E-01 1.2200000E-01 7.2700000E-01
EXPONENTS  7.2700000E-01 7.2700000E-01
MO  1                     OCC NO =   1.00000000 ORB. ENERGY =  -0.33304239
  9.54139448E-02  1.61845046E-01  1.84207750E-01  7.43847167E-02  0.00000000E+00
  0.00000000E+00  0.00000000E+00
END DATA
SCF      ENERGY =      -0.500289863968   VIRIAL(-V/T)  =   2.00000000

$MOSPIN
 1
$END
