atomref-proatoms N_q0_mult4_nist bse:cc-pVDZ
GAUSSIAN              7 MOL ORBITALS     27 PRIMITIVES        1 NUCLEI
  N    1    (CENTRE  1)   0.00000000  0.00000000  0.00000000  CHARGE = 7.0
CENTRE ASSIGNMENTS    1  1  1  1  1  1  1  1  1  1  1  1  1  1  1  1  1  1  1  1
CENTRE ASSIGNMENTS    1  1  1  1  1  1  1
TYPE ASSIGNMENTS      1  1  1  1  1  1  1  1  1  2  3  4  2  3  4  2  3  4  2  3
TYPE ASSIGNMENTS      4  5  8  9  6 10  7
EXPONENTS  9.0460000E+03 1.3570000E+03 3.0930000E+02 8.7730000E+01 2.8560000E+01
EXPONENTS  1.0210000E+01 3.8380000E+00 7.4660000E-01 2.2480000E-01 1.3550000E+01
EXPONENTS  1.3550000E+01 1.3550000E+01 2.9170000E+00 2.9170000E+00 2.9170000E+00
EXPONENTS  7.9730000E-01 7.9730000E-01 7.9730000E-01 2.1850000E-01 2.1850000E-01
EXPONENTS  2.1850000E-01 8.1700000E-01 8.1700000E-01 8.1700000E-01 8.1700000E-01
EXPONENTS  8.1700000E-01 8.1700000E-01
MO    1                     OCC NO =   1.00000000 ORB. ENERGY = -14.49727511
  4.62214107E-01  8.57637417E-01  1.43890728E+00  2.10536848E+00  2.45029055E+00
  1.81955223E+00  5.41058423E-01  1.43017577E-02 -1.56937576E-03  0.00000000E+00
  0.00000000E+00  0.00000000E+00  0.00000000E+00  0.00000000E+00  0.00000000E+00
  0.00000000E+00  0.00000000E+00  0.00000000E+00  0.00000000E+00  0.00000000E+00
  0.00000000E+00  0.00000000E+00  0.00000000E+00  0.00000000E+00  0.00000000E+00
  0.00000000E+00  0.00000000E+00
MO    2                     OCC NO =   1.00000000 ORB. ENERGY =  -0.83246717
 -1.03624299E-01 -1.97395576E-01 -3.22692954E-01 -5.15295526E-01 -6.10758611E-01
 -6.68714071E-01 -2.48533227E-01  3.34180155E-01  1.27427128E-01  0.00000000E+00
  0.00000000E+00  0.00000000E+00  0.00000000E+00  0.00000000E+00  0.00000000E+00
  0.00000000E+00  0.00000000E+00  0.00000000E+00  0.00000000E+00  0.00000000E+00
  0.00000000E+00  0.00000000E+00  0.00000000E+00  0.00000000E+00  0.00000000E+00
  0.00000000E+00  0.00000000E+00
MO    3                     OCC NO =   1.00000000 ORB. ENERGY =  -0.36284223
  0.00000000E+00  0.00000000E+00  0.00000000E+00  0.00000000E+00  0.00000000E+00
  0.00000000E+00  0.00000000E+00  0.00000000E+00  0.00000000E+00  1.48393134E+00
  0.00000000E+00  0.00000000E+00  1.18380018E+00  0.00000000E+00  0.00000000E+00
  5.49767393E-01  0.00000000E+00  0.00000000E+00  9.79091957E-02  0.00000000E+00
  0.00000000E+00  0.00000000E+00  0.00000000E+00  0.00000000E+00  0.00000000E+00
  0.00000000E+00  0.00000000E+00
MO    4                     OCC NO =   1.00000000 ORB. ENERGY =  -0.36284223
  0.00000000E+00  0.00000000E+00  0.00000000E+00  0.00000000E+00  0.00000000E+00
  0.00000000E+00  0.00000000E+00  0.00000000E+00  0.00000000E+00  0.00000000E+00
  1.48393134E+00  0.00000000E+00  0.00000000E+00  1.18380018E+00  0.00000000E+00
  0.00000000E+00  5.49767393E-01  0.00000000E+00  0.00000000E+00  9.79091957E-02
  0.00000000E+00  0.00000000E+00  0.00000000E+00  0.00000000E+00  0.00000000E+00
  0.00000000E+00  0.00000000E+00
MO    5                     OCC NO =   1.00000000 ORB. ENERGY =  -0.36284223
  0.00000000E+00  0.00000000E+00  0.00000000E+00  0.00000000E+00  0.00000000E+00
  0.00000000E+00  0.00000000E+00  0.00000000E+00  0.00000000E+00  0.00000000E+00
  0.00000000E+00  1.48393134E+00  0.00000000E+00  0.00000000E+00  1.18380018E+00
  0.00000000E+00  0.00000000E+00  5.49767393E-01  0.00000000E+00  0.00000000E+00
  9.79091957E-02  0.00000000E+00  0.00000000E+00  0.00000000E+00  0.00000000E+00
  0.00000000E+00  0.00000000E+00
MO    7                     OCC NO =   1.00000000 ORB. ENERGY = -14.43571256
  4.62548228E-01  8.58297800E-01  1.43994823E+00  2.10723211E+00  2.45254667E+00
  1.82292612E+00  5.42453887E-01  1.16488354E-02 -1.31422248E-03  0.00000000E+00
  0.00000000E+00  0.00000000E+00  0.00000000E+00  0.00000000E+00  0.00000000E+00
  0.00000000E+00  0.00000000E+00  0.00000000E+00  0.00000000E+00  0.00000000E+00
  0.00000000E+00  0.00000000E+00  0.00000000E+00  0.00000000E+00  0.00000000E+00
  0.00000000E+00  0.00000000E+00
MO    8                     OCC NO =   1.00000000 ORB. ENERGY =  -0.60691699
 -1.01318798E-01 -1.92510402E-01 -3.15503575E-01 -4.99659916E-01 -5.91251835E-01
 -6.28709714E-01 -2.30745029E-01  2.94238453E-01  1.41854507E-01  0.00000000E+00
  0.00000000E+00  0.00000000E+00  0.00000000E+00  0.00000000E+00  0.00000000E+00
  0.00000000E+00  0.00000000E+00  0.00000000E+00  0.00000000E+00  0.00000000E+00
  0.00000000E+00  0.00000000E+00  0.00000000E+00  0.00000000E+00  0.00000000E+00
  0.00000000E+00  0.00000000E+00
END DATA
SCF      ENERGY =     -54.530747832527   VIRIAL(-V/T)  =   2.00000000

$MOSPIN
 1 1 1 1 1 2 2
$END
