atomref-proatoms O_q0_mult3_nist bse:cc-pVDZ
GAUSSIAN             10 MOL ORBITALS     27 PRIMITIVES        1 NUCLEI
  O    1    (CENTRE  1)   0.00000000  0.00000000  0.00000000  CHARGE = 8.0
CENTRE ASSIGNMENTS    1  1  1  1  1  1  1  1  1  1  1  1  1  1  1  1  1  1  1  1
CENTRE ASSIGNMENTS    1  1  1  1  1  1  1
TYPE ASSIGNMENTS      1  1  1  1  1  1  1  1  1  2  3  4  2  3  4  2  3  4  2  3
TYPE ASSIGNMENTS      4  5  8  9  6 10  7
EXPONENTS  1.1720000E+04 1.7590000E+03 4.0080000E+02 1.1370000E+02 3.7030000E+01
EXPONENTS  1.3270000E+01 5.0250000E+00 1.0130000E+00 3.0230000E-01 1.7700000E+01
EXPONENTS  1.7700000E+01 1.7700000E+01 3.8540000E+00 3.8540000E+00 3.8540000E+00
EXPONENTS  1.0460000E+00 1.0460000E+00 1.0460000E+00 2.7530000E-01 2.7530000E-01
EXPONENTS  2.7530000E-01 1.1850000E+00 1.1850000E+00 1.1850000E+00 1.1850000E+00
EXPONENTS  1.1850000E+00 1.1850000E+00
MO    1                     OCC NO =   1.00000000 ORB. ENERGY = -19.36094246
  5.69491745E-01  1.05788637E+00  1.77563143E+00  2.59778246E+00  3.02474652E+00
  2.21746921E+00  6.45833439E-01  1.63166223E-02 -1.70662754E-03  0.00000000E+00
  0.00000000E+00  0.00000000E+00  0.00000000E+00  0.00000000E+00  0.00000000E+00
  0.00000000E+00  0.00000000E+00  0.00000000E+00  0.00000000E+00  0.00000000E+00
  0.00000000E+00  0.00000000E+00  0.00000000E+00  0.00000000E+00  0.00000000E+00
  0.00000000E+00  0.00000000E+00
MO    2                     OCC NO =   1.00000000 ORB. ENERGY =  -1.04208504
 -1.30585484E-01 -2.48698036E-01 -4.06747508E-01 -6.50009611E-01 -7.73204230E-01
 -8.40760740E-01 -2.87548256E-01  4.17245596E-01  1.60580970E-01  0.00000000E+00
  0.00000000E+00  0.00000000E+00  0.00000000E+00  0.00000000E+00  0.00000000E+00
  0.00000000E+00  0.00000000E+00  0.00000000E+00  0.00000000E+00  0.00000000E+00
  0.00000000E+00  0.00000000E+00  0.00000000E+00  0.00000000E+00  0.00000000E+00
  0.00000000E+00  0.00000000E+00
MO    3                     OCC NO =   1.00000000 ORB. ENERGY =  -0.44112061
  0.00000000E+00  0.00000000E+00  0.00000000E+00  0.00000000E+00  0.00000000E+00
  0.00000000E+00  0.00000000E+00  0.00000000E+00  0.00000000E+00  2.27286315E+00
  0.00000000E+00  0.00000000E+00  1.79893961E+00  0.00000000E+00  0.00000000E+00
  7.83171251E-01  0.00000000E+00  0.00000000E+00  1.26196933E-01  0.00000000E+00
  0.00000000E+00  0.00000000E+00  0.00000000E+00  0.00000000E+00  0.00000000E+00
  0.00000000E+00  0.00000000E+00
MO    4                     OCC NO =   1.00000000 ORB. ENERGY =  -0.44112061
  0.00000000E+00  0.00000000E+00  0.00000000E+00  0.00000000E+00  0.00000000E+00
  0.00000000E+00  0.00000000E+00  0.00000000E+00  0.00000000E+00  0.00000000E+00
  2.27286315E+00  0.00000000E+00  0.00000000E+00  1.79893961E+00  0.00000000E+00
  0.00000000E+00  7.83171251E-01  0.00000000E+00  0.00000000E+00  1.26196933E-01
  0.00000000E+00  0.00000000E+00  0.00000000E+00  0.00000000E+00  0.00000000E+00
  0.00000000E+00  0.00000000E+00
MO    5                     OCC NO =   1.00000000 ORB. ENERGY =  -0.44112061
  0.00000000E+00  0.00000000E+00  0.00000000E+00  0.00000000E+00  0.00000000E+00
  0.00000000E+00  0.00000000E+00  0.00000000E+00  0.00000000E+00  0.00000000E+00
  0.00000000E+00  2.27286315E+00  0.00000000E+00  0.00000000E+00  1.79893961E+00
  0.00000000E+00  0.00000000E+00  7.83171251E-01  0.00000000E+00  0.00000000E+00
  1.26196933E-01  0.00000000E+00  0.00000000E+00  0.00000000E+00  0.00000000E+00
  0.00000000E+00  0.00000000E+00
MO    7                     OCC NO =   1.00000000 ORB. ENERGY = -19.30761964
  5.69771324E-01  1.05843782E+00  1.77650099E+00  2.59934270E+00  3.02664898E+00
  2.22030030E+00  6.46881787E-01  1.41170473E-02 -1.48347254E-03  0.00000000E+00
  0.00000000E+00  0.00000000E+00  0.00000000E+00  0.00000000E+00  0.00000000E+00
  0.00000000E+00  0.00000000E+00  0.00000000E+00  0.00000000E+00  0.00000000E+00
  0.00000000E+00  0.00000000E+00  0.00000000E+00  0.00000000E+00  0.00000000E+00
  0.00000000E+00  0.00000000E+00
MO    8                     OCC NO =   1.00000000 ORB. ENERGY =  -0.87296007
 -1.28582292E-01 -2.44496221E-01 -4.00533738E-01 -6.36606255E-01 -7.56313467E-01
 -8.06873114E-01 -2.74327939E-01  3.84251948E-01  1.72450194E-01  0.00000000E+00
  0.00000000E+00  0.00000000E+00  0.00000000E+00  0.00000000E+00  0.00000000E+00
  0.00000000E+00  0.00000000E+00  0.00000000E+00  0.00000000E+00  0.00000000E+00
  0.00000000E+00  0.00000000E+00  0.00000000E+00  0.00000000E+00  0.00000000E+00
  0.00000000E+00  0.00000000E+00
MO    9                     OCC NO =   0.33333333 ORB. ENERGY =  -0.20907469
  0.00000000E+00  0.00000000E+00  0.00000000E+00  0.00000000E+00  0.00000000E+00
  0.00000000E+00  0.00000000E+00  0.00000000E+00  0.00000000E+00  2.05643413E+00
  0.00000000E+00  0.00000000E+00  1.62763904E+00  0.00000000E+00  0.00000000E+00
  7.08595274E-01  0.00000000E+00  0.00000000E+00  1.47322929E-01  0.00000000E+00
  0.00000000E+00  0.00000000E+00  0.00000000E+00  0.00000000E+00  0.00000000E+00
  0.00000000E+00  0.00000000E+00
MO   10                     OCC NO =   0.33333333 ORB. ENERGY =  -0.20907469
  0.00000000E+00  0.00000000E+00  0.00000000E+00  0.00000000E+00  0.00000000E+00
  0.00000000E+00  0.00000000E+00  0.00000000E+00  0.00000000E+00  0.00000000E+00
  2.05643413E+00  0.00000000E+00  0.00000000E+00  1.62763904E+00  0.00000000E+00
  0.00000000E+00  7.08595274E-01  0.00000000E+00  0.00000000E+00  1.47322929E-01
  0.00000000E+00  0.00000000E+00  0.00000000E+00  0.00000000E+00  0.00000000E+00
  0.00000000E+00  0.00000000E+00
MO   11                    OCC NO =   0.33333333 ORB. ENERGY =  -0.20907469
  0.00000000E+00  0.00000000E+00  0.00000000E+00  0.00000000E+00  0.00000000E+00
  0.00000000E+00  0.00000000E+00  0.00000000E+00  0.00000000E+00  0.00000000E+00
  0.00000000E+00  2.05643413E+00  0.00000000E+00  0.00000000E+00  1.62763904E+00
  0.00000000E+00  0.00000000E+00  7.08595274E-01  0.00000000E+00  0.00000000E+00
  1.47322929E-01  0.00000000E+00  0.00000000E+00  0.00000000E+00  0.00000000E+00
  0.00000000E+00  0.00000000E+00
END DATA
SCF      ENERGY =     -74.928892991821   VIRIAL(-V/T)  =   2.00000000

$MOSPIN
 1 1 1 1 1 2 2 2 2 2
$END
